<?xml version="1.0"?> 
<VTKFile type="StructuredGrid" version="0.1"> 
<StructuredGrid WholeExtent="0 19 0 19 0 0"> 
<Piece Extent="0 19 0 19 0 0"> 
<PointData>
<DataArray type="Float32" Name="press" format="ascii" NumberOfComponents="1"> 
-0.555705 -0.503032 -0.450409 -0.397793 -0.345118 -0.292498 -0.239848 -0.187193 -0.134588 -0.0819246 -0.0292944 0.0233045 0.0759515 0.128547 0.181135 0.233717 0.286212 0.338609 0.390408 0.3999 -0.555687 -0.503022 -0.4504 -0.397785 -0.345115 -0.292499 -0.239854 -0.187204 -0.134605 -0.081949 -0.0293277 0.0232596 0.0758906 0.128464 0.181018 0.233552 0.28598 0.338338 0.390679 0.443467 -0.555662 -0.503028 -0.450406 -0.397793 -0.345126 -0.292513 -0.239873 -0.187228 -0.134634 -0.0819831 -0.0293673 0.0232146 0.0758416 0.128415 0.18098 0.23355 0.286076 0.338652 0.391278 0.443816 -0.55562 -0.503039 -0.450416 -0.397803 -0.345137 -0.292526 -0.239888 -0.187245 -0.134653 -0.0820043 -0.029389 0.0231947 0.0758275 0.128413 0.181002 0.233613 0.286194 0.338827 0.391477 0.443805 -0.555554 -0.503053 -0.450428 -0.397814 -0.345148 -0.292537 -0.239899 -0.187256 -0.134664 -0.0820134 -0.0293953 0.0231936 0.0758351 0.128434 0.181041 0.233672 0.286273 0.338918 0.391567 0.443632 -0.555455 -0.503069 -0.45044 -0.397824 -0.345156 -0.292544 -0.239905 -0.18726 -0.134666 -0.0820129 -0.0293906 0.0232041 0.0758533 0.128462 0.181078 0.233719 0.286327 0.338973 0.39162 0.443373 -0.555315 -0.503084 -0.450451 -0.397832 -0.345161 -0.292547 -0.239905 -0.187258 -0.134661 -0.0820043 -0.0293778 0.0232218 0.0758765 0.128491 0.181113 0.233757 0.286367 0.339012 0.391657 0.44305 -0.555123 -0.503098 -0.45046 -0.397837 -0.345163 -0.292545 -0.2399 -0.187249 -0.134649 -0.081989 -0.0293591 0.0232442 0.0759025 0.12852 0.181144 0.23379 0.2864 0.339044 0.391689 0.442682 -0.554871 -0.50311 -0.450465 -0.397838 -0.345159 -0.292537 -0.239888 -0.187234 -0.134631 -0.081968 -0.0293356 0.0232699 0.0759303 0.128549 0.181175 0.233821 0.28643 0.339073 0.391719 0.442284 -0.554545 -0.503119 -0.450466 -0.397833 -0.345148 -0.292521 -0.239868 -0.187212 -0.134606 -0.0819421 -0.0293083 0.0232984 0.0759598 0.12858 0.181206 0.233852 0.286461 0.339102 0.391749 0.441873 -0.554136 -0.503124 -0.450462 -0.397821 -0.345129 -0.292497 -0.239841 -0.187182 -0.134577 -0.0819123 -0.0292784 0.0233287 0.0759907 0.128611 0.181238 0.233884 0.286493 0.339133 0.391781 0.44147 -0.553634 -0.503125 -0.45045 -0.397799 -0.345099 -0.292462 -0.239805 -0.187148 -0.134544 -0.0818804 -0.0292471 0.0233601 0.0760228 0.128644 0.181272 0.23392 0.286529 0.33917 0.391819 0.441103 -0.553026 -0.50312 -0.450427 -0.397763 -0.345055 -0.292417 -0.239763 -0.18711 -0.13451 -0.0818487 -0.0292158 0.0233922 0.0760566 0.12868 0.181311 0.233961 0.286573 0.339216 0.391867 0.440804 -0.552302 -0.503106 -0.450389 -0.397708 -0.344995 -0.292363 -0.23972 -0.187075 -0.134479 -0.0818188 -0.0291848 0.0234257 0.0760934 0.128721 0.181356 0.234012 0.286629 0.339277 0.391935 0.440612 -0.551453 -0.503077 -0.450322 -0.397624 -0.344922 -0.292312 -0.239684 -0.187047 -0.134452 -0.0817904 -0.0291529 0.023462 0.0761352 0.128769 0.181412 0.234076 0.286704 0.339364 0.392034 0.440574 -0.550467 -0.503017 -0.450204 -0.397511 -0.344857 -0.29228 -0.239663 -0.187027 -0.134428 -0.0817615 -0.0291182 0.0235033 0.0761841 0.128827 0.181481 0.234161 0.286807 0.339491 0.392187 0.440756 -0.549342 -0.502881 -0.450007 -0.397416 -0.344834 -0.292272 -0.239653 -0.187009 -0.134404 -0.0817292 -0.0290784 0.0235512 0.0762417 0.128897 0.181568 0.234271 0.286952 0.339682 0.392435 0.441249 -0.548076 -0.502525 -0.449816 -0.397427 -0.344854 -0.292278 -0.239644 -0.186989 -0.134374 -0.0816912 -0.0290323 0.0236064 0.0763083 0.12898 0.181675 0.234416 0.287157 0.339987 0.392893 0.442292 -0.546714 -0.501765 -0.449942 -0.397506 -0.344886 -0.292282 -0.239631 -0.186964 -0.134339 -0.0816483 -0.0289809 0.0236678 0.0763834 0.129075 0.181804 0.234605 0.287458 0.340521 0.393941 0.444944 -0.492723 -0.502419 -0.449824 -0.397106 -0.34433 -0.291635 -0.238947 -0.186299 -0.133749 -0.0811935 -0.0287249 0.0236605 0.0760459 0.128345 0.180624 0.232932 0.285294 0.338025 0.392312 0.492504 </DataArray> 
</PointData> 
<Points> 
<DataArray type="Float32" NumberOfComponents="3"> 
0 0 0 0.0526316 0 0 0.105263 0 0 0.157895 0 0 0.210526 0 0 0.263158 0 0 0.315789 0 0 0.368421 0 0 0.421053 0 0 0.473684 0 0 0.526316 0 0 0.578947 0 0 0.631579 0 0 0.684211 0 0 0.736842 0 0 0.789474 0 0 0.842105 0 0 0.894737 0 0 0.947368 0 0 1 0 0 0 0.0526316 0 0.0526316 0.0554017 0 0.105263 0.0581717 0 0.157895 0.0609418 0 0.210526 0.0637119 0 0.263158 0.066482 0 0.315789 0.0692521 0 0.368421 0.0720222 0 0.421053 0.0747922 0 0.473684 0.0775623 0 0.526316 0.0803324 0 0.578947 0.0831025 0 0.631579 0.0858726 0 0.684211 0.0886427 0 0.736842 0.0914127 0 0.789474 0.0941828 0 0.842105 0.0969529 0 0.894737 0.099723 0 0.947368 0.102493 0 1 0.105263 0 0 0.105263 0 0.0526316 0.110803 0 0.105263 0.116343 0 0.157895 0.121884 0 0.210526 0.127424 0 0.263158 0.132964 0 0.315789 0.138504 0 0.368421 0.144044 0 0.421053 0.149584 0 0.473684 0.155125 0 0.526316 0.160665 0 0.578947 0.166205 0 0.631579 0.171745 0 0.684211 0.177285 0 0.736842 0.182825 0 0.789474 0.188366 0 0.842105 0.193906 0 0.894737 0.199446 0 0.947368 0.204986 0 1 0.210526 0 0 0.157895 0 0.0526316 0.166205 0 0.105263 0.174515 0 0.157895 0.182825 0 0.210526 0.191136 0 0.263158 0.199446 0 0.315789 0.207756 0 0.368421 0.216066 0 0.421053 0.224377 0 0.473684 0.232687 0 0.526316 0.240997 0 0.578947 0.249307 0 0.631579 0.257618 0 0.684211 0.265928 0 0.736842 0.274238 0 0.789474 0.282548 0 0.842105 0.290859 0 0.894737 0.299169 0 0.947368 0.307479 0 1 0.315789 0 0 0.210526 0 0.0526316 0.221607 0 0.105263 0.232687 0 0.157895 0.243767 0 0.210526 0.254848 0 0.263158 0.265928 0 0.315789 0.277008 0 0.368421 0.288089 0 0.421053 0.299169 0 0.473684 0.310249 0 0.526316 0.32133 0 0.578947 0.33241 0 0.631579 0.34349 0 0.684211 0.354571 0 0.736842 0.365651 0 0.789474 0.376731 0 0.842105 0.387812 0 0.894737 0.398892 0 0.947368 0.409972 0 1 0.421053 0 0 0.263158 0 0.0526316 0.277008 0 0.105263 0.290859 0 0.157895 0.304709 0 0.210526 0.31856 0 0.263158 0.33241 0 0.315789 0.34626 0 0.368421 0.360111 0 0.421053 0.373961 0 0.473684 0.387812 0 0.526316 0.401662 0 0.578947 0.415512 0 0.631579 0.429363 0 0.684211 0.443213 0 0.736842 0.457064 0 0.789474 0.470914 0 0.842105 0.484765 0 0.894737 0.498615 0 0.947368 0.512465 0 1 0.526316 0 0 0.315789 0 0.0526316 0.33241 0 0.105263 0.34903 0 0.157895 0.365651 0 0.210526 0.382271 0 0.263158 0.398892 0 0.315789 0.415512 0 0.368421 0.432133 0 0.421053 0.448753 0 0.473684 0.465374 0 0.526316 0.481994 0 0.578947 0.498615 0 0.631579 0.515235 0 0.684211 0.531856 0 0.736842 0.548476 0 0.789474 0.565097 0 0.842105 0.581717 0 0.894737 0.598338 0 0.947368 0.614958 0 1 0.631579 0 0 0.368421 0 0.0526316 0.387812 0 0.105263 0.407202 0 0.157895 0.426593 0 0.210526 0.445983 0 0.263158 0.465374 0 0.315789 0.484765 0 0.368421 0.504155 0 0.421053 0.523546 0 0.473684 0.542936 0 0.526316 0.562327 0 0.578947 0.581717 0 0.631579 0.601108 0 0.684211 0.620499 0 0.736842 0.639889 0 0.789474 0.65928 0 0.842105 0.67867 0 0.894737 0.698061 0 0.947368 0.717452 0 1 0.736842 0 0 0.421053 0 0.0526316 0.443213 0 0.105263 0.465374 0 0.157895 0.487535 0 0.210526 0.509695 0 0.263158 0.531856 0 0.315789 0.554017 0 0.368421 0.576177 0 0.421053 0.598338 0 0.473684 0.620499 0 0.526316 0.642659 0 0.578947 0.66482 0 0.631579 0.686981 0 0.684211 0.709141 0 0.736842 0.731302 0 0.789474 0.753463 0 0.842105 0.775623 0 0.894737 0.797784 0 0.947368 0.819945 0 1 0.842105 0 0 0.473684 0 0.0526316 0.498615 0 0.105263 0.523546 0 0.157895 0.548476 0 0.210526 0.573407 0 0.263158 0.598338 0 0.315789 0.623269 0 0.368421 0.648199 0 0.421053 0.67313 0 0.473684 0.698061 0 0.526316 0.722992 0 0.578947 0.747922 0 0.631579 0.772853 0 0.684211 0.797784 0 0.736842 0.822715 0 0.789474 0.847645 0 0.842105 0.872576 0 0.894737 0.897507 0 0.947368 0.922438 0 1 0.947368 0 0 0.526316 0 0.0526316 0.554017 0 0.105263 0.581717 0 0.157895 0.609418 0 0.210526 0.637119 0 0.263158 0.66482 0 0.315789 0.692521 0 0.368421 0.720222 0 0.421053 0.747922 0 0.473684 0.775623 0 0.526316 0.803324 0 0.578947 0.831025 0 0.631579 0.858726 0 0.684211 0.886427 0 0.736842 0.914127 0 0.789474 0.941828 0 0.842105 0.969529 0 0.894737 0.99723 0 0.947368 1.02493 0 1 1.05263 0 0 0.578947 0 0.0526316 0.609418 0 0.105263 0.639889 0 0.157895 0.67036 0 0.210526 0.700831 0 0.263158 0.731302 0 0.315789 0.761773 0 0.368421 0.792244 0 0.421053 0.822715 0 0.473684 0.853186 0 0.526316 0.883657 0 0.578947 0.914127 0 0.631579 0.944598 0 0.684211 0.975069 0 0.736842 1.00554 0 0.789474 1.03601 0 0.842105 1.06648 0 0.894737 1.09695 0 0.947368 1.12742 0 1 1.15789 0 0 0.631579 0 0.0526316 0.66482 0 0.105263 0.698061 0 0.157895 0.731302 0 0.210526 0.764543 0 0.263158 0.797784 0 0.315789 0.831025 0 0.368421 0.864266 0 0.421053 0.897507 0 0.473684 0.930748 0 0.526316 0.963989 0 0.578947 0.99723 0 0.631579 1.03047 0 0.684211 1.06371 0 0.736842 1.09695 0 0.789474 1.13019 0 0.842105 1.16343 0 0.894737 1.19668 0 0.947368 1.22992 0 1 1.26316 0 0 0.684211 0 0.0526316 0.720222 0 0.105263 0.756233 0 0.157895 0.792244 0 0.210526 0.828255 0 0.263158 0.864266 0 0.315789 0.900277 0 0.368421 0.936288 0 0.421053 0.972299 0 0.473684 1.00831 0 0.526316 1.04432 0 0.578947 1.08033 0 0.631579 1.11634 0 0.684211 1.15235 0 0.736842 1.18837 0 0.789474 1.22438 0 0.842105 1.26039 0 0.894737 1.2964 0 0.947368 1.33241 0 1 1.36842 0 0 0.736842 0 0.0526316 0.775623 0 0.105263 0.814404 0 0.157895 0.853186 0 0.210526 0.891967 0 0.263158 0.930748 0 0.315789 0.969529 0 0.368421 1.00831 0 0.421053 1.04709 0 0.473684 1.08587 0 0.526316 1.12465 0 0.578947 1.16343 0 0.631579 1.20222 0 0.684211 1.241 0 0.736842 1.27978 0 0.789474 1.31856 0 0.842105 1.35734 0 0.894737 1.39612 0 0.947368 1.4349 0 1 1.47368 0 0 0.789474 0 0.0526316 0.831025 0 0.105263 0.872576 0 0.157895 0.914127 0 0.210526 0.955679 0 0.263158 0.99723 0 0.315789 1.03878 0 0.368421 1.08033 0 0.421053 1.12188 0 0.473684 1.16343 0 0.526316 1.20499 0 0.578947 1.24654 0 0.631579 1.28809 0 0.684211 1.32964 0 0.736842 1.37119 0 0.789474 1.41274 0 0.842105 1.45429 0 0.894737 1.49584 0 0.947368 1.5374 0 1 1.57895 0 0 0.842105 0 0.0526316 0.886427 0 0.105263 0.930748 0 0.157895 0.975069 0 0.210526 1.01939 0 0.263158 1.06371 0 0.315789 1.10803 0 0.368421 1.15235 0 0.421053 1.19668 0 0.473684 1.241 0 0.526316 1.28532 0 0.578947 1.32964 0 0.631579 1.37396 0 0.684211 1.41828 0 0.736842 1.4626 0 0.789474 1.50693 0 0.842105 1.55125 0 0.894737 1.59557 0 0.947368 1.63989 0 1 1.68421 0 0 0.894737 0 0.0526316 0.941828 0 0.105263 0.98892 0 0.157895 1.03601 0 0.210526 1.0831 0 0.263158 1.13019 0 0.315789 1.17729 0 0.368421 1.22438 0 0.421053 1.27147 0 0.473684 1.31856 0 0.526316 1.36565 0 0.578947 1.41274 0 0.631579 1.45983 0 0.684211 1.50693 0 0.736842 1.55402 0 0.789474 1.60111 0 0.842105 1.6482 0 0.894737 1.69529 0 0.947368 1.74238 0 1 1.78947 0 0 0.947368 0 0.0526316 0.99723 0 0.105263 1.04709 0 0.157895 1.09695 0 0.210526 1.14681 0 0.263158 1.19668 0 0.315789 1.24654 0 0.368421 1.2964 0 0.421053 1.34626 0 0.473684 1.39612 0 0.526316 1.44598 0 0.578947 1.49584 0 0.631579 1.54571 0 0.684211 1.59557 0 0.736842 1.64543 0 0.789474 1.69529 0 0.842105 1.74515 0 0.894737 1.79501 0 0.947368 1.84488 0 1 1.89474 0 0 1 0 0.0526316 1.05263 0 0.105263 1.10526 0 0.157895 1.15789 0 0.210526 1.21053 0 0.263158 1.26316 0 0.315789 1.31579 0 0.368421 1.36842 0 0.421053 1.42105 0 0.473684 1.47368 0 0.526316 1.52632 0 0.578947 1.57895 0 0.631579 1.63158 0 0.684211 1.68421 0 0.736842 1.73684 0 0.789474 1.78947 0 0.842105 1.84211 0 0.894737 1.89474 0 0.947368 1.94737 0 1 2 0 
</DataArray>
</Points> 
</Piece> 
</StructuredGrid> 
</VTKFile> 
