<?xml version="1.0"?> 
<VTKFile type="StructuredGrid" version="0.1"> 
<StructuredGrid WholeExtent="0 19 0 19 0 0"> 
<Piece Extent="0 19 0 19 0 0"> 
<PointData>
<DataArray type="Float32" Name="press" format="ascii" NumberOfComponents="1"> 
-0.555559 -0.502666 -0.450021 -0.39741 -0.344755 -0.292161 -0.239539 -0.18691 -0.13433 -0.0816889 -0.0290771 0.0235071 0.076143 0.128731 0.181315 0.233896 0.286393 0.338794 0.390586 0.400072 -0.555517 -0.502747 -0.45008 -0.397455 -0.344791 -0.292189 -0.239563 -0.186932 -0.134352 -0.0817128 -0.0291062 0.023469 0.0760907 0.128657 0.181208 0.23374 0.286168 0.338528 0.390872 0.44367 -0.555456 -0.502772 -0.450118 -0.397494 -0.344828 -0.292225 -0.239598 -0.186967 -0.134388 -0.0817511 -0.0291475 0.0234243 0.0760432 0.12861 0.181171 0.23374 0.286266 0.338844 0.391473 0.444017 -0.555371 -0.502779 -0.450137 -0.397518 -0.344855 -0.292252 -0.239625 -0.186995 -0.134416 -0.0817794 -0.0291749 0.0233996 0.0760251 0.128605 0.181191 0.233799 0.286381 0.339015 0.391669 0.444003 -0.555253 -0.502779 -0.450146 -0.397533 -0.344872 -0.292272 -0.239646 -0.187016 -0.134437 -0.0817981 -0.0291904 0.0233896 0.076024 0.128618 0.18122 0.23385 0.28645 0.339096 0.391747 0.44382 -0.555094 -0.502778 -0.450149 -0.397541 -0.344884 -0.292286 -0.239661 -0.187031 -0.134451 -0.0818098 -0.0291982 0.0233875 0.0760294 0.128632 0.181245 0.233883 0.286489 0.339134 0.391781 0.443542 -0.554881 -0.502776 -0.450151 -0.397547 -0.344893 -0.292297 -0.239672 -0.187042 -0.13446 -0.0818167 -0.0292015 0.0233888 0.0760361 0.128644 0.181261 0.233902 0.286509 0.339151 0.391794 0.443197 -0.554602 -0.502774 -0.450151 -0.397551 -0.344899 -0.292305 -0.239681 -0.187051 -0.134467 -0.0818211 -0.0292027 0.0233913 0.0760422 0.128653 0.181273 0.233915 0.28652 0.339159 0.391799 0.442808 -0.554246 -0.502773 -0.450151 -0.397554 -0.344906 -0.292313 -0.239689 -0.187058 -0.134473 -0.0818242 -0.0292027 0.0233943 0.0760481 0.128662 0.181282 0.233924 0.286528 0.339164 0.391801 0.442394 -0.553793 -0.502775 -0.450152 -0.397559 -0.344913 -0.292321 -0.239698 -0.187065 -0.134478 -0.0818261 -0.0292015 0.0233987 0.0760551 0.128671 0.181293 0.233934 0.286538 0.339172 0.391808 0.441978 -0.553231 -0.502778 -0.450155 -0.397566 -0.344923 -0.292332 -0.239708 -0.187073 -0.134482 -0.0818264 -0.029198 0.0234057 0.0760651 0.128683 0.181307 0.233949 0.286553 0.339187 0.391822 0.441586 -0.552541 -0.502786 -0.450162 -0.397578 -0.344937 -0.292346 -0.239719 -0.18708 -0.134484 -0.0818235 -0.0291904 0.0234173 0.0760803 0.128701 0.181327 0.233972 0.286577 0.339213 0.391848 0.441243 -0.551703 -0.5028 -0.450175 -0.397597 -0.344957 -0.292363 -0.239731 -0.187084 -0.134481 -0.081815 -0.0291767 0.0234356 0.0761026 0.128727 0.181357 0.234006 0.286614 0.339254 0.391891 0.440981 -0.550703 -0.502822 -0.450197 -0.397625 -0.344983 -0.292382 -0.239739 -0.187082 -0.134472 -0.0817989 -0.0291552 0.0234619 0.0761335 0.128763 0.181398 0.234053 0.286668 0.339315 0.391957 0.440834 -0.549522 -0.502857 -0.450235 -0.397665 -0.345013 -0.292395 -0.239738 -0.187071 -0.134452 -0.0817737 -0.0291249 0.0234971 0.0761741 0.12881 0.181453 0.234117 0.286743 0.339403 0.392056 0.440843 -0.548143 -0.502914 -0.450295 -0.397715 -0.345035 -0.292394 -0.239722 -0.187047 -0.134423 -0.0817394 -0.0290861 0.0235412 0.0762247 0.128869 0.181523 0.234202 0.286848 0.339532 0.392208 0.441067 -0.546558 -0.503011 -0.450385 -0.397755 -0.345033 -0.292372 -0.239692 -0.187012 -0.134384 -0.0816972 -0.0290396 0.0235934 0.0762849 0.12894 0.181611 0.234313 0.286993 0.339724 0.392456 0.441591 -0.54476 -0.50319 -0.450469 -0.397746 -0.345 -0.292332 -0.23965 -0.186968 -0.134339 -0.0816487 -0.0289869 0.0236524 0.0763537 0.129024 0.181718 0.234459 0.2872 0.34003 0.392914 0.442644 -0.542837 -0.50347 -0.450438 -0.397687 -0.344942 -0.292278 -0.239598 -0.186916 -0.134286 -0.0815944 -0.0289291 0.0237158 0.0764268 0.129114 0.181838 0.234634 0.287483 0.340539 0.393926 0.44534 -0.545903 -0.503211 -0.450033 -0.397195 -0.344375 -0.29166 -0.238964 -0.186309 -0.133752 -0.0811854 -0.0286991 0.0237112 0.07613 0.128471 0.180801 0.233169 0.2856 0.338411 0.392574 0.475889 </DataArray> 
</PointData> 
<Points> 
<DataArray type="Float32" NumberOfComponents="3"> 
0 0 0 0.0526316 0 0 0.105263 0 0 0.157895 0 0 0.210526 0 0 0.263158 0 0 0.315789 0 0 0.368421 0 0 0.421053 0 0 0.473684 0 0 0.526316 0 0 0.578947 0 0 0.631579 0 0 0.684211 0 0 0.736842 0 0 0.789474 0 0 0.842105 0 0 0.894737 0 0 0.947368 0 0 1 0 0 0 0.0526316 0 0.0526316 0.0554017 0 0.105263 0.0581717 0 0.157895 0.0609418 0 0.210526 0.0637119 0 0.263158 0.066482 0 0.315789 0.0692521 0 0.368421 0.0720222 0 0.421053 0.0747922 0 0.473684 0.0775623 0 0.526316 0.0803324 0 0.578947 0.0831025 0 0.631579 0.0858726 0 0.684211 0.0886427 0 0.736842 0.0914127 0 0.789474 0.0941828 0 0.842105 0.0969529 0 0.894737 0.099723 0 0.947368 0.102493 0 1 0.105263 0 0 0.105263 0 0.0526316 0.110803 0 0.105263 0.116343 0 0.157895 0.121884 0 0.210526 0.127424 0 0.263158 0.132964 0 0.315789 0.138504 0 0.368421 0.144044 0 0.421053 0.149584 0 0.473684 0.155125 0 0.526316 0.160665 0 0.578947 0.166205 0 0.631579 0.171745 0 0.684211 0.177285 0 0.736842 0.182825 0 0.789474 0.188366 0 0.842105 0.193906 0 0.894737 0.199446 0 0.947368 0.204986 0 1 0.210526 0 0 0.157895 0 0.0526316 0.166205 0 0.105263 0.174515 0 0.157895 0.182825 0 0.210526 0.191136 0 0.263158 0.199446 0 0.315789 0.207756 0 0.368421 0.216066 0 0.421053 0.224377 0 0.473684 0.232687 0 0.526316 0.240997 0 0.578947 0.249307 0 0.631579 0.257618 0 0.684211 0.265928 0 0.736842 0.274238 0 0.789474 0.282548 0 0.842105 0.290859 0 0.894737 0.299169 0 0.947368 0.307479 0 1 0.315789 0 0 0.210526 0 0.0526316 0.221607 0 0.105263 0.232687 0 0.157895 0.243767 0 0.210526 0.254848 0 0.263158 0.265928 0 0.315789 0.277008 0 0.368421 0.288089 0 0.421053 0.299169 0 0.473684 0.310249 0 0.526316 0.32133 0 0.578947 0.33241 0 0.631579 0.34349 0 0.684211 0.354571 0 0.736842 0.365651 0 0.789474 0.376731 0 0.842105 0.387812 0 0.894737 0.398892 0 0.947368 0.409972 0 1 0.421053 0 0 0.263158 0 0.0526316 0.277008 0 0.105263 0.290859 0 0.157895 0.304709 0 0.210526 0.31856 0 0.263158 0.33241 0 0.315789 0.34626 0 0.368421 0.360111 0 0.421053 0.373961 0 0.473684 0.387812 0 0.526316 0.401662 0 0.578947 0.415512 0 0.631579 0.429363 0 0.684211 0.443213 0 0.736842 0.457064 0 0.789474 0.470914 0 0.842105 0.484765 0 0.894737 0.498615 0 0.947368 0.512465 0 1 0.526316 0 0 0.315789 0 0.0526316 0.33241 0 0.105263 0.34903 0 0.157895 0.365651 0 0.210526 0.382271 0 0.263158 0.398892 0 0.315789 0.415512 0 0.368421 0.432133 0 0.421053 0.448753 0 0.473684 0.465374 0 0.526316 0.481994 0 0.578947 0.498615 0 0.631579 0.515235 0 0.684211 0.531856 0 0.736842 0.548476 0 0.789474 0.565097 0 0.842105 0.581717 0 0.894737 0.598338 0 0.947368 0.614958 0 1 0.631579 0 0 0.368421 0 0.0526316 0.387812 0 0.105263 0.407202 0 0.157895 0.426593 0 0.210526 0.445983 0 0.263158 0.465374 0 0.315789 0.484765 0 0.368421 0.504155 0 0.421053 0.523546 0 0.473684 0.542936 0 0.526316 0.562327 0 0.578947 0.581717 0 0.631579 0.601108 0 0.684211 0.620499 0 0.736842 0.639889 0 0.789474 0.65928 0 0.842105 0.67867 0 0.894737 0.698061 0 0.947368 0.717452 0 1 0.736842 0 0 0.421053 0 0.0526316 0.443213 0 0.105263 0.465374 0 0.157895 0.487535 0 0.210526 0.509695 0 0.263158 0.531856 0 0.315789 0.554017 0 0.368421 0.576177 0 0.421053 0.598338 0 0.473684 0.620499 0 0.526316 0.642659 0 0.578947 0.66482 0 0.631579 0.686981 0 0.684211 0.709141 0 0.736842 0.731302 0 0.789474 0.753463 0 0.842105 0.775623 0 0.894737 0.797784 0 0.947368 0.819945 0 1 0.842105 0 0 0.473684 0 0.0526316 0.498615 0 0.105263 0.523546 0 0.157895 0.548476 0 0.210526 0.573407 0 0.263158 0.598338 0 0.315789 0.623269 0 0.368421 0.648199 0 0.421053 0.67313 0 0.473684 0.698061 0 0.526316 0.722992 0 0.578947 0.747922 0 0.631579 0.772853 0 0.684211 0.797784 0 0.736842 0.822715 0 0.789474 0.847645 0 0.842105 0.872576 0 0.894737 0.897507 0 0.947368 0.922438 0 1 0.947368 0 0 0.526316 0 0.0526316 0.554017 0 0.105263 0.581717 0 0.157895 0.609418 0 0.210526 0.637119 0 0.263158 0.66482 0 0.315789 0.692521 0 0.368421 0.720222 0 0.421053 0.747922 0 0.473684 0.775623 0 0.526316 0.803324 0 0.578947 0.831025 0 0.631579 0.858726 0 0.684211 0.886427 0 0.736842 0.914127 0 0.789474 0.941828 0 0.842105 0.969529 0 0.894737 0.99723 0 0.947368 1.02493 0 1 1.05263 0 0 0.578947 0 0.0526316 0.609418 0 0.105263 0.639889 0 0.157895 0.67036 0 0.210526 0.700831 0 0.263158 0.731302 0 0.315789 0.761773 0 0.368421 0.792244 0 0.421053 0.822715 0 0.473684 0.853186 0 0.526316 0.883657 0 0.578947 0.914127 0 0.631579 0.944598 0 0.684211 0.975069 0 0.736842 1.00554 0 0.789474 1.03601 0 0.842105 1.06648 0 0.894737 1.09695 0 0.947368 1.12742 0 1 1.15789 0 0 0.631579 0 0.0526316 0.66482 0 0.105263 0.698061 0 0.157895 0.731302 0 0.210526 0.764543 0 0.263158 0.797784 0 0.315789 0.831025 0 0.368421 0.864266 0 0.421053 0.897507 0 0.473684 0.930748 0 0.526316 0.963989 0 0.578947 0.99723 0 0.631579 1.03047 0 0.684211 1.06371 0 0.736842 1.09695 0 0.789474 1.13019 0 0.842105 1.16343 0 0.894737 1.19668 0 0.947368 1.22992 0 1 1.26316 0 0 0.684211 0 0.0526316 0.720222 0 0.105263 0.756233 0 0.157895 0.792244 0 0.210526 0.828255 0 0.263158 0.864266 0 0.315789 0.900277 0 0.368421 0.936288 0 0.421053 0.972299 0 0.473684 1.00831 0 0.526316 1.04432 0 0.578947 1.08033 0 0.631579 1.11634 0 0.684211 1.15235 0 0.736842 1.18837 0 0.789474 1.22438 0 0.842105 1.26039 0 0.894737 1.2964 0 0.947368 1.33241 0 1 1.36842 0 0 0.736842 0 0.0526316 0.775623 0 0.105263 0.814404 0 0.157895 0.853186 0 0.210526 0.891967 0 0.263158 0.930748 0 0.315789 0.969529 0 0.368421 1.00831 0 0.421053 1.04709 0 0.473684 1.08587 0 0.526316 1.12465 0 0.578947 1.16343 0 0.631579 1.20222 0 0.684211 1.241 0 0.736842 1.27978 0 0.789474 1.31856 0 0.842105 1.35734 0 0.894737 1.39612 0 0.947368 1.4349 0 1 1.47368 0 0 0.789474 0 0.0526316 0.831025 0 0.105263 0.872576 0 0.157895 0.914127 0 0.210526 0.955679 0 0.263158 0.99723 0 0.315789 1.03878 0 0.368421 1.08033 0 0.421053 1.12188 0 0.473684 1.16343 0 0.526316 1.20499 0 0.578947 1.24654 0 0.631579 1.28809 0 0.684211 1.32964 0 0.736842 1.37119 0 0.789474 1.41274 0 0.842105 1.45429 0 0.894737 1.49584 0 0.947368 1.5374 0 1 1.57895 0 0 0.842105 0 0.0526316 0.886427 0 0.105263 0.930748 0 0.157895 0.975069 0 0.210526 1.01939 0 0.263158 1.06371 0 0.315789 1.10803 0 0.368421 1.15235 0 0.421053 1.19668 0 0.473684 1.241 0 0.526316 1.28532 0 0.578947 1.32964 0 0.631579 1.37396 0 0.684211 1.41828 0 0.736842 1.4626 0 0.789474 1.50693 0 0.842105 1.55125 0 0.894737 1.59557 0 0.947368 1.63989 0 1 1.68421 0 0 0.894737 0 0.0526316 0.941828 0 0.105263 0.98892 0 0.157895 1.03601 0 0.210526 1.0831 0 0.263158 1.13019 0 0.315789 1.17729 0 0.368421 1.22438 0 0.421053 1.27147 0 0.473684 1.31856 0 0.526316 1.36565 0 0.578947 1.41274 0 0.631579 1.45983 0 0.684211 1.50693 0 0.736842 1.55402 0 0.789474 1.60111 0 0.842105 1.6482 0 0.894737 1.69529 0 0.947368 1.74238 0 1 1.78947 0 0 0.947368 0 0.0526316 0.99723 0 0.105263 1.04709 0 0.157895 1.09695 0 0.210526 1.14681 0 0.263158 1.19668 0 0.315789 1.24654 0 0.368421 1.2964 0 0.421053 1.34626 0 0.473684 1.39612 0 0.526316 1.44598 0 0.578947 1.49584 0 0.631579 1.54571 0 0.684211 1.59557 0 0.736842 1.64543 0 0.789474 1.69529 0 0.842105 1.74515 0 0.894737 1.79501 0 0.947368 1.84488 0 1 1.89474 0 0 1 0 0.0526316 1.05263 0 0.105263 1.10526 0 0.157895 1.15789 0 0.210526 1.21053 0 0.263158 1.26316 0 0.315789 1.31579 0 0.368421 1.36842 0 0.421053 1.42105 0 0.473684 1.47368 0 0.526316 1.52632 0 0.578947 1.57895 0 0.631579 1.63158 0 0.684211 1.68421 0 0.736842 1.73684 0 0.789474 1.78947 0 0.842105 1.84211 0 0.894737 1.89474 0 0.947368 1.94737 0 1 2 0 
</DataArray>
</Points> 
</Piece> 
</StructuredGrid> 
</VTKFile> 
