<?xml version="1.0"?> 
<VTKFile type="StructuredGrid" version="0.1"> 
<StructuredGrid WholeExtent="0 19 0 19 0 0"> 
<Piece Extent="0 19 0 19 0 0"> 
<PointData>
<DataArray type="Float32" Name="velocity" format="ascii" NumberOfComponents="3"> 
-1.81539e-07 1.47574e-08 0 0.0526077 2.463e-08 0 0.10507 3.05374e-08 0 0.157241 3.72353e-08 0 0.208977 4.46342e-08 0 0.260134 5.27055e-08 0 0.310571 6.14417e-08 0 0.360147 7.08095e-08 0 0.408727 8.07612e-08 0 0.456174 9.12622e-08 0 0.502359 1.0224e-07 0 0.547152 1.13628e-07 0 0.59043 1.25357e-07 0 0.632073 1.37341e-07 0 0.671966 1.49523e-07 0 0.709997 1.61921e-07 0 0.746063 1.74927e-07 0 0.780063 1.91538e-07 0 0.811902 2.02189e-07 0 0.841538 -1.91947e-06 0 -1.40158e-05 -0.0526108 0 0.052515 -0.0552976 0 0.104881 -0.0578175 0 0.156938 -0.0601472 0 0.208541 -0.0622615 0 0.259546 -0.0641453 0 0.309811 -0.0657735 0 0.359196 -0.0671281 0 0.407564 -0.0681958 0 0.454779 -0.0689496 0 0.500712 -0.0693823 0 0.545234 -0.0694796 0 0.588221 -0.0692184 0 0.629556 -0.0685993 0 0.669123 -0.067606 0 0.706813 -0.0662279 0 0.742523 -0.0644678 0 0.776153 -0.0623091 0 0.807603 -0.0597496 0 0.836787 -0.0567717 0 -2.01443e-05 -0.105078 0 0.0522684 -0.110428 0 0.104346 -0.115442 0 0.156063 -0.120073 0 0.207272 -0.124272 0 0.257828 -0.128009 0 0.307587 -0.131233 0 0.356408 -0.13391 0 0.404153 -0.136012 0 0.450687 -0.137486 0 0.495878 -0.138319 0 0.539601 -0.138482 0 0.581732 -0.13793 0 0.622155 -0.136663 0 0.660755 -0.134651 0 0.697427 -0.13187 0 0.732067 -0.128326 0 0.764581 -0.123982 0 0.794878 -0.118842 0 0.822881 -0.112913 0 -2.28511e-05 -0.157254 0 0.0518649 -0.16522 0 0.103461 -0.172677 0 0.154611 -0.179555 0 0.205166 -0.18578 0 0.254975 -0.191309 0 0.303893 -0.196065 0 0.351776 -0.199998 0 0.398487 -0.203069 0 0.443889 -0.205197 0 0.487851 -0.206364 0 0.530249 -0.206529 0 0.57096 -0.205623 0 0.609872 -0.203652 0 0.646873 -0.200566 0 0.681862 -0.196336 0 0.714743 -0.190969 0 0.745427 -0.184415 0 0.773833 -0.176687 0 0.79989 -0.1678 0 -2.3404e-05 -0.208996 0 0.0513024 -0.219506 0 0.102223 -0.229329 0 0.152581 -0.238372 0 0.202218 -0.246536 0 0.250982 -0.253766 0 0.298725 -0.259961 0 0.345299 -0.265053 0 0.390566 -0.268995 0 0.434389 -0.27168 0 0.476639 -0.273084 0 0.517192 -0.273157 0 0.555929 -0.271808 0 0.592741 -0.269048 0 0.627525 -0.264814 0 0.660183 -0.25907 0 0.690629 -0.251828 0 0.718784 -0.243029 0 0.744577 -0.232693 0 0.767946 -0.220845 0 -2.24866e-05 -0.26016 0 0.0505857 -0.273118 0 0.100645 -0.285204 0 0.149991 -0.296303 0 0.19846 -0.30629 0 0.245895 -0.315099 0 0.292142 -0.322607 0 0.337053 -0.32873 0 0.380487 -0.333412 0 0.422308 -0.336522 0 0.462387 -0.338035 0 0.500605 -0.33789 0 0.536847 -0.335979 0 0.57101 -0.332319 0 0.602997 -0.326837 0 0.632722 -0.319492 0 0.660107 -0.310307 0 0.685085 -0.299213 0 0.707599 -0.28624 0 0.727602 -0.271424 0 -2.0442e-05 -0.310604 0 0.0497137 -0.325893 0 0.0987256 -0.340115 0 0.146842 -0.353134 0 0.193892 -0.364802 0 0.239713 -0.375042 0 0.284148 -0.383708 0 0.327046 -0.390705 0 0.368264 -0.395969 0 0.407668 -0.399345 0 0.445132 -0.40081 0 0.480539 -0.400296 0 0.513782 -0.39768 0 0.544764 -0.392987 0 0.5734 -0.386139 0 0.599614 -0.377092 0 0.623343 -0.365883 0 0.644534 -0.352435 0 0.663145 -0.336795 0 0.67915 -0.319013 0 -1.75045e-05 -0.360188 0 0.0486896 -0.377667 0 0.0964717 -0.393876 0 0.143146 -0.408655 0 0.188535 -0.421834 0 0.23247 -0.433328 0 0.274789 -0.44297 0 0.315339 -0.450654 0 0.353978 -0.456312 0 0.390572 -0.459767 0 0.424999 -0.461001 0 0.457149 -0.459942 0 0.486923 -0.456452 0 0.514233 -0.450572 0 0.539007 -0.44222 0 0.561183 -0.431354 0 0.580714 -0.418027 0 0.597567 -0.402161 0 0.611719 -0.383821 0 0.623167 -0.363074 0 -1.38277e-05 -0.408775 0 0.0475183 -0.428282 0 0.0938957 -0.446302 0 0.138926 -0.462655 0 0.182423 -0.477149 0 0.224212 -0.489694 0 0.264128 -0.500102 0 0.302016 -0.508259 0 0.337735 -0.514095 0 0.371154 -0.517413 0 0.402157 -0.518206 0 0.43064 -0.516399 0 0.456516 -0.511844 0 0.47971 -0.504602 0 0.500165 -0.494589 0 0.517835 -0.481771 0 0.532695 -0.466221 0 0.544731 -0.447865 0 0.553947 -0.42679 0 0.560364 -0.403087 0 -9.48627e-06 -0.456231 0 0.0461994 -0.477582 0 0.0909972 -0.49722 0 0.134181 -0.514941 0 0.175558 -0.530532 0 0.214946 -0.543903 0 0.252179 -0.554845 0 0.287101 -0.563237 0 0.319573 -0.569015 0 0.349468 -0.571963 0 0.376679 -0.572085 0 0.401112 -0.569311 0 0.422692 -0.563487 0 0.441361 -0.554695 0 0.45708 -0.542856 0 0.469825 -0.527949 0 0.479592 -0.510071 0 0.486396 -0.489156 0 0.490268 -0.465319 0 0.49126 -0.438678 0 -4.56405e-06 -0.502423 0 0.0447401 -0.525416 0 0.0877931 -0.546453 0 0.128941 -0.565312 0 0.167985 -0.581758 0 0.204737 -0.595704 0 0.23903 -0.606922 0 0.270708 -0.61529 0 0.299636 -0.620748 0 0.325697 -0.623066 0 0.348789 -0.622267 0 0.368836 -0.618286 0 0.385777 -0.610967 0 0.399574 -0.600421 0 0.410208 -0.586578 0 0.417683 -0.569433 0 0.422021 -0.549115 0 0.423268 -0.52557 0 0.421486 -0.498946 0 0.416762 -0.469393 0 8.7696e-07 -0.547223 0 0.0431447 -0.571636 0 0.0842939 -0.593835 0 0.123226 -0.613581 0 0.159734 -0.63062 0 0.193629 -0.644869 0 0.224742 -0.656085 0 0.25292 -0.664146 0 0.278036 -0.669004 0 0.299979 -0.670416 0 0.318666 -0.668426 0 0.334032 -0.662984 0 0.346038 -0.653934 0 0.354669 -0.641422 0 0.359934 -0.62539 0 0.361863 -0.605858 0 0.360512 -0.582988 0 0.35596 -0.556748 0 0.348307 -0.527322 0 0.337679 -0.494896 0 6.76875e-06 -0.590507 0 0.0414149 -0.616101 0 0.0805045 -0.63921 0 0.117045 -0.659575 0 0.150823 -0.676927 0 0.18165 -0.691191 0 0.209358 -0.702112 0 0.2338 -0.709571 0 0.254856 -0.713535 0 0.27243 -0.713751 0 0.286454 -0.710294 0 0.296886 -0.703128 0 0.303709 -0.692105 0 0.306936 -0.677411 0 0.306606 -0.659008 0 0.302785 -0.636942 0 0.295564 -0.611416 0 0.28506 -0.582426 0 0.271415 -0.550196 0 0.254799 -0.514954 0 1.29831e-05 -0.632156 0 0.0395592 -0.658673 0 0.076445 -0.682417 0 0.110433 -0.703116 0 0.141307 -0.720481 0 0.168878 -0.734454 0 0.192982 -0.744766 0 0.213482 -0.751308 0 0.230268 -0.754066 0 0.243264 -0.752783 0 0.252419 -0.747567 0 0.257717 -0.738404 0 0.259171 -0.725159 0 0.256824 -0.708064 0 0.250752 -0.687103 0 0.241058 -0.66236 0 0.227875 -0.63408 0 0.211364 -0.602295 0 0.191713 -0.567274 0 0.169137 -0.529289 0 1.93366e-05 -0.672052 0 0.0375812 -0.699222 0 0.0721246 -0.723314 0 0.103407 -0.744045 0 0.131213 -0.761112 0 0.155357 -0.774474 0 0.175679 -0.783852 0 0.192055 -0.789151 0 0.204392 -0.790383 0 0.212632 -0.78729 0 0.216753 -0.78002 0 0.216765 -0.768586 0 0.212718 -0.752872 0 0.20469 -0.733159 0 0.192797 -0.709465 0 0.177187 -0.68191 0 0.158039 -0.650794 0 0.135561 -0.616184 0 0.109991 -0.578403 0 0.0815951 -0.537768 0 2.55066e-05 -0.710086 0 0.0354856 -0.737622 0 0.0675557 -0.761763 0 0.0959931 -0.782214 0 0.120584 -0.798659 0 0.141146 -0.811076 0 0.157531 -0.819184 0 0.169628 -0.822907 0 0.177366 -0.822286 0 0.180715 -0.817068 0 0.17968 -0.807448 0 0.174309 -0.79347 0 0.164688 -0.775043 0 0.150939 -0.752504 0 0.133224 -0.725909 0 0.111738 -0.695424 0 0.0867108 -0.661401 0 0.0584043 -0.623957 0 0.027109 -0.583467 0 -0.00685371 -0.540297 0 3.09337e-05 -0.74615 0 0.0332792 -0.773753 0 0.0627572 -0.797632 0 0.0882262 -0.817477 0 0.109473 -0.83296 0 0.126321 -0.84409 0 0.138637 -0.850582 0 0.146333 -0.852388 0 0.149362 -0.849582 0 0.147725 -0.841923 0 0.141463 -0.829656 0 0.130665 -0.812865 0 0.115459 -0.791491 0 0.0960173 -0.765929 0 0.0725508 -0.73628 0 0.0453088 -0.702765 0 0.0145766 -0.665789 0 -0.0193275 -0.625527 0 -0.0560556 -0.582408 0 -0.0952292 -0.536846 0 3.44022e-05 -0.780144 0 0.0309634 -0.807508 0 0.0577423 -0.830807 0 0.0801312 -0.849711 0 0.0979154 -0.863886 0 0.110933 -0.873379 0 0.119073 -0.877908 0 0.122271 -0.877455 0 0.120514 -0.872134 0 0.113837 -0.861723 0 0.102324 -0.846522 0 0.0861092 -0.826658 0 0.0653708 -0.802113 0 0.0403337 -0.773345 0 0.0112656 -0.740508 0 -0.0215261 -0.703879 0 -0.0576963 -0.663924 0 -0.0968663 -0.62088 0 -0.138627 -0.575233 0 -0.18254 -0.527443 0 3.25154e-05 -0.811969 0 0.0285465 -0.838787 0 0.0525386 -0.861174 0 0.0717439 -0.878789 0 0.0859642 -0.891304 0 0.0950589 -0.898806 0 0.0989416 -0.901023 0 0.0975793 -0.897969 0 0.0909959 -0.889808 0 0.0792689 -0.876338 0 0.06253 -0.857923 0 0.0409641 -0.834741 0 0.0148061 -0.806818 0 -0.0156607 -0.774684 0 -0.0501075 -0.738546 0 -0.088164 -0.698748 0 -0.129422 -0.655816 0 -0.173439 -0.610059 0 -0.219743 -0.562022 0 -0.267832 -0.512201 0 4.42864e-06 -0.841537 0 0.0260561 -0.867497 0 0.0471659 -0.888624 0 0.0630965 -0.9046 0 0.0736706 -0.9151 0 0.0787714 -0.920257 0 0.078343 -0.919812 0 0.0723893 -0.913821 0 0.0609766 -0.9025 0 0.0442312 -0.885678 0 0.0223383 -0.863787 0 -0.00445966 -0.837059 0 -0.0358661 -0.805577 0 -0.0715334 -0.76994 0 -0.111067 -0.73042 0 -0.154029 -0.687428 0 -0.199943 -0.641554 0 -0.248303 -0.593179 0 -0.298572 -0.54291 0 -0.350199 -0.491318 0 </DataArray> 
<DataArray type="Float32" Name="divergence" format="ascii" NumberOfComponents="1"> 
-3.27176e-06 -5.18752e-06 -6.12544e-06 -7.12946e-06 -8.17455e-06 -9.25058e-06 -1.03525e-05 -1.14721e-05 -1.25998e-05 -1.37296e-05 -1.48507e-05 -1.59546e-05 -1.70337e-05 -1.8079e-05 -1.90861e-05 -2.00609e-05 -2.10536e-05 -2.24218e-05 -1.89061e-05 -0.00018222 3.35392e-08 5.31778e-08 6.27926e-08 7.30849e-08 8.37983e-08 9.48287e-08 1.06125e-07 1.17602e-07 1.29162e-07 1.40743e-07 1.52237e-07 1.63553e-07 1.74615e-07 1.8533e-07 1.95654e-07 2.05646e-07 2.15866e-07 2.30483e-07 -6.63752e-08 2.68579e-05 -7.95808e-11 -1.26179e-10 -1.48994e-10 -1.73408e-10 -1.98833e-10 -2.25004e-10 -2.51808e-10 -2.79039e-10 -3.06474e-10 -3.33949e-10 -3.61219e-10 -3.88073e-10 -4.14315e-10 -4.39741e-10 -4.64249e-10 -4.88596e-10 -4.3962e-10 5.21843e-10 -4.3836e-07 4.20548e-05 -5.41478e-12 -8.57509e-12 -1.01277e-11 -1.17836e-11 -1.35105e-11 -1.52898e-11 -1.71138e-11 -1.89674e-11 -2.0828e-11 -2.26958e-11 -2.45498e-11 -2.63819e-11 -2.81607e-11 -2.98839e-11 -3.15597e-11 -3.43879e-11 1.0052e-10 1.95559e-09 -8.17651e-07 7.85299e-05 4.79616e-14 7.86038e-14 8.79297e-14 9.9587e-14 1.19016e-13 1.38556e-13 1.50768e-13 1.68754e-13 1.78524e-13 1.9984e-13 2.17604e-13 2.33535e-13 2.55795e-13 2.66454e-13 2.58904e-13 -1.73062e-12 2.24825e-10 3.30607e-09 -1.35641e-06 0.000130279 0 -1.77636e-15 1.77636e-15 4.44089e-16 -2.66454e-15 0 -4.88498e-15 1.77636e-15 -1.06581e-14 -4.44089e-15 5.32907e-15 4.32987e-15 -8.88178e-16 1.77636e-15 -1.02141e-14 -3.04112e-12 3.37563e-10 4.96999e-09 -2.03928e-06 0.000195867 -2.66454e-15 -4.44089e-16 -1.77636e-15 2.77556e-15 5.32907e-15 -1.77636e-15 -8.88178e-16 4.44089e-16 0 -1.11022e-15 6.66134e-15 1.88738e-15 5.32907e-15 -1.77636e-15 -2.26485e-14 -4.27924e-12 4.73791e-10 6.97584e-09 -2.86232e-06 0.000274919 -3.55271e-15 5.32907e-15 -1.77636e-15 3.55271e-15 0 1.77636e-15 7.54952e-15 1.77636e-15 5.32907e-15 6.21725e-15 1.77636e-15 -8.88178e-16 3.55271e-15 0 -2.35367e-14 -5.69411e-12 6.30912e-10 9.28931e-09 -3.81158e-06 0.000366092 1.42109e-14 -8.88178e-15 -7.10543e-15 4.44089e-16 -7.10543e-15 7.10543e-15 8.88178e-16 0 -1.06581e-14 1.06581e-14 7.10543e-15 -2.4869e-14 3.55271e-15 3.55271e-15 -3.33067e-14 -7.27063e-12 8.05368e-10 1.1858e-08 -4.86554e-06 0.000467323 3.55271e-15 2.22045e-15 3.55271e-15 2.22045e-16 4.44089e-15 0 8.88178e-16 2.66454e-15 7.10543e-15 3.10862e-15 1.77636e-15 8.10463e-15 -3.55271e-15 7.10543e-15 -2.53131e-14 -8.96883e-12 9.92724e-10 1.46164e-08 -5.99739e-06 0.000576034 0 -3.55271e-15 0 0 -1.77636e-15 -3.55271e-15 2.66454e-15 1.77636e-15 0 -1.77636e-15 3.55271e-15 5.77316e-15 5.32907e-15 3.55271e-15 -4.04121e-14 -1.07008e-11 1.18602e-09 1.74624e-08 -7.16516e-06 0.000688196 1.02141e-14 3.10862e-15 -6.66134e-16 1.71807e-14 6.55032e-15 -3.9968e-15 4.44089e-16 -1.06581e-14 1.86517e-14 1.33227e-15 -1.11022e-15 -1.07692e-14 2.22045e-15 -6.88338e-15 -4.39648e-14 -1.24315e-11 1.37665e-09 2.02694e-08 -8.31693e-06 0.000798819 -3.55271e-15 -8.88178e-16 -8.88178e-15 1.33227e-15 5.32907e-15 3.55271e-15 8.88178e-16 0 7.10543e-15 3.55271e-15 -8.88178e-15 -1.66533e-15 8.88178e-16 -8.88178e-15 -4.35207e-14 -1.40163e-11 1.55322e-09 2.2869e-08 -9.38356e-06 0.000901267 0 -1.77636e-15 -7.10543e-15 4.44089e-16 -7.10543e-15 -3.55271e-15 -7.10543e-15 -7.10543e-15 0 1.24345e-14 3.55271e-15 1.33227e-15 7.10543e-15 3.55271e-15 -4.92939e-14 -1.53619e-11 1.70256e-09 2.50678e-08 -1.02858e-05 0.000987925 1.59872e-14 2.22045e-15 7.10543e-15 -9.99201e-16 6.66134e-15 1.59872e-14 -2.44249e-15 1.5099e-14 2.66454e-15 1.77636e-15 8.88178e-15 -1.38778e-15 3.55271e-15 -1.5099e-14 -7.24976e-14 -1.63385e-11 1.80827e-09 2.66246e-08 -1.09246e-05 0.00104928 7.07345e-12 2.78888e-13 1.4353e-12 2.00551e-12 2.44249e-12 2.72848e-12 2.83684e-12 2.72493e-12 2.40874e-12 1.83498e-12 1.00009e-12 -1.03917e-13 -1.49036e-12 -3.16192e-12 -5.1914e-12 -2.41283e-11 1.84164e-09 2.72503e-08 -1.11867e-05 0.00107445 -7.97932e-10 -3.1541e-11 -1.61343e-10 -2.2608e-10 -2.7568e-10 -3.07836e-10 -3.19449e-10 -3.07946e-10 -2.71342e-10 -2.06647e-10 -1.12863e-10 1.14184e-11 1.68216e-10 3.57193e-10 5.79635e-10 8.20821e-10 2.94707e-09 2.81999e-08 -1.09606e-05 0.00105293 -1.17403e-08 -4.64198e-10 -2.37381e-09 -3.32657e-09 -4.05613e-09 -4.52913e-09 -4.70009e-09 -4.53093e-09 -3.99223e-09 -3.04063e-09 -1.66066e-09 1.67829e-10 2.47498e-09 5.25559e-09 8.5292e-09 1.23029e-08 1.83404e-08 4.65152e-08 -1.01056e-05 0.000973434 4.94796e-06 1.95637e-07 1.00045e-06 1.40199e-06 1.70947e-06 1.9088e-06 1.98086e-06 1.90957e-06 1.68253e-06 1.28148e-06 6.99893e-07 -7.07336e-08 -1.04308e-06 -2.21498e-06 -3.59467e-06 -5.19146e-06 -7.02107e-06 -9.17197e-06 -2.14177e-05 0.000868915 -0.000482675 -1.90845e-05 -9.75939e-05 -0.000136764 -0.000166759 -0.000186204 -0.000193234 -0.000186279 -0.000164132 -0.000125009 -6.82748e-05 6.90009e-06 0.000101753 0.000216072 0.000350661 0.000506428 0.000685058 0.000896943 0.00118073 0.00250355 </DataArray> 
</PointData> 
<Points> 
<DataArray type="Float32" NumberOfComponents="3"> 
0 0 0 0.0526316 0 0 0.105263 0 0 0.157895 0 0 0.210526 0 0 0.263158 0 0 0.315789 0 0 0.368421 0 0 0.421053 0 0 0.473684 0 0 0.526316 0 0 0.578947 0 0 0.631579 0 0 0.684211 0 0 0.736842 0 0 0.789474 0 0 0.842105 0 0 0.894737 0 0 0.947368 0 0 1 0 0 0 0.0526316 0 0.0526316 0.0554017 0 0.105263 0.0581717 0 0.157895 0.0609418 0 0.210526 0.0637119 0 0.263158 0.066482 0 0.315789 0.0692521 0 0.368421 0.0720222 0 0.421053 0.0747922 0 0.473684 0.0775623 0 0.526316 0.0803324 0 0.578947 0.0831025 0 0.631579 0.0858726 0 0.684211 0.0886427 0 0.736842 0.0914127 0 0.789474 0.0941828 0 0.842105 0.0969529 0 0.894737 0.099723 0 0.947368 0.102493 0 1 0.105263 0 0 0.105263 0 0.0526316 0.110803 0 0.105263 0.116343 0 0.157895 0.121884 0 0.210526 0.127424 0 0.263158 0.132964 0 0.315789 0.138504 0 0.368421 0.144044 0 0.421053 0.149584 0 0.473684 0.155125 0 0.526316 0.160665 0 0.578947 0.166205 0 0.631579 0.171745 0 0.684211 0.177285 0 0.736842 0.182825 0 0.789474 0.188366 0 0.842105 0.193906 0 0.894737 0.199446 0 0.947368 0.204986 0 1 0.210526 0 0 0.157895 0 0.0526316 0.166205 0 0.105263 0.174515 0 0.157895 0.182825 0 0.210526 0.191136 0 0.263158 0.199446 0 0.315789 0.207756 0 0.368421 0.216066 0 0.421053 0.224377 0 0.473684 0.232687 0 0.526316 0.240997 0 0.578947 0.249307 0 0.631579 0.257618 0 0.684211 0.265928 0 0.736842 0.274238 0 0.789474 0.282548 0 0.842105 0.290859 0 0.894737 0.299169 0 0.947368 0.307479 0 1 0.315789 0 0 0.210526 0 0.0526316 0.221607 0 0.105263 0.232687 0 0.157895 0.243767 0 0.210526 0.254848 0 0.263158 0.265928 0 0.315789 0.277008 0 0.368421 0.288089 0 0.421053 0.299169 0 0.473684 0.310249 0 0.526316 0.32133 0 0.578947 0.33241 0 0.631579 0.34349 0 0.684211 0.354571 0 0.736842 0.365651 0 0.789474 0.376731 0 0.842105 0.387812 0 0.894737 0.398892 0 0.947368 0.409972 0 1 0.421053 0 0 0.263158 0 0.0526316 0.277008 0 0.105263 0.290859 0 0.157895 0.304709 0 0.210526 0.31856 0 0.263158 0.33241 0 0.315789 0.34626 0 0.368421 0.360111 0 0.421053 0.373961 0 0.473684 0.387812 0 0.526316 0.401662 0 0.578947 0.415512 0 0.631579 0.429363 0 0.684211 0.443213 0 0.736842 0.457064 0 0.789474 0.470914 0 0.842105 0.484765 0 0.894737 0.498615 0 0.947368 0.512465 0 1 0.526316 0 0 0.315789 0 0.0526316 0.33241 0 0.105263 0.34903 0 0.157895 0.365651 0 0.210526 0.382271 0 0.263158 0.398892 0 0.315789 0.415512 0 0.368421 0.432133 0 0.421053 0.448753 0 0.473684 0.465374 0 0.526316 0.481994 0 0.578947 0.498615 0 0.631579 0.515235 0 0.684211 0.531856 0 0.736842 0.548476 0 0.789474 0.565097 0 0.842105 0.581717 0 0.894737 0.598338 0 0.947368 0.614958 0 1 0.631579 0 0 0.368421 0 0.0526316 0.387812 0 0.105263 0.407202 0 0.157895 0.426593 0 0.210526 0.445983 0 0.263158 0.465374 0 0.315789 0.484765 0 0.368421 0.504155 0 0.421053 0.523546 0 0.473684 0.542936 0 0.526316 0.562327 0 0.578947 0.581717 0 0.631579 0.601108 0 0.684211 0.620499 0 0.736842 0.639889 0 0.789474 0.65928 0 0.842105 0.67867 0 0.894737 0.698061 0 0.947368 0.717452 0 1 0.736842 0 0 0.421053 0 0.0526316 0.443213 0 0.105263 0.465374 0 0.157895 0.487535 0 0.210526 0.509695 0 0.263158 0.531856 0 0.315789 0.554017 0 0.368421 0.576177 0 0.421053 0.598338 0 0.473684 0.620499 0 0.526316 0.642659 0 0.578947 0.66482 0 0.631579 0.686981 0 0.684211 0.709141 0 0.736842 0.731302 0 0.789474 0.753463 0 0.842105 0.775623 0 0.894737 0.797784 0 0.947368 0.819945 0 1 0.842105 0 0 0.473684 0 0.0526316 0.498615 0 0.105263 0.523546 0 0.157895 0.548476 0 0.210526 0.573407 0 0.263158 0.598338 0 0.315789 0.623269 0 0.368421 0.648199 0 0.421053 0.67313 0 0.473684 0.698061 0 0.526316 0.722992 0 0.578947 0.747922 0 0.631579 0.772853 0 0.684211 0.797784 0 0.736842 0.822715 0 0.789474 0.847645 0 0.842105 0.872576 0 0.894737 0.897507 0 0.947368 0.922438 0 1 0.947368 0 0 0.526316 0 0.0526316 0.554017 0 0.105263 0.581717 0 0.157895 0.609418 0 0.210526 0.637119 0 0.263158 0.66482 0 0.315789 0.692521 0 0.368421 0.720222 0 0.421053 0.747922 0 0.473684 0.775623 0 0.526316 0.803324 0 0.578947 0.831025 0 0.631579 0.858726 0 0.684211 0.886427 0 0.736842 0.914127 0 0.789474 0.941828 0 0.842105 0.969529 0 0.894737 0.99723 0 0.947368 1.02493 0 1 1.05263 0 0 0.578947 0 0.0526316 0.609418 0 0.105263 0.639889 0 0.157895 0.67036 0 0.210526 0.700831 0 0.263158 0.731302 0 0.315789 0.761773 0 0.368421 0.792244 0 0.421053 0.822715 0 0.473684 0.853186 0 0.526316 0.883657 0 0.578947 0.914127 0 0.631579 0.944598 0 0.684211 0.975069 0 0.736842 1.00554 0 0.789474 1.03601 0 0.842105 1.06648 0 0.894737 1.09695 0 0.947368 1.12742 0 1 1.15789 0 0 0.631579 0 0.0526316 0.66482 0 0.105263 0.698061 0 0.157895 0.731302 0 0.210526 0.764543 0 0.263158 0.797784 0 0.315789 0.831025 0 0.368421 0.864266 0 0.421053 0.897507 0 0.473684 0.930748 0 0.526316 0.963989 0 0.578947 0.99723 0 0.631579 1.03047 0 0.684211 1.06371 0 0.736842 1.09695 0 0.789474 1.13019 0 0.842105 1.16343 0 0.894737 1.19668 0 0.947368 1.22992 0 1 1.26316 0 0 0.684211 0 0.0526316 0.720222 0 0.105263 0.756233 0 0.157895 0.792244 0 0.210526 0.828255 0 0.263158 0.864266 0 0.315789 0.900277 0 0.368421 0.936288 0 0.421053 0.972299 0 0.473684 1.00831 0 0.526316 1.04432 0 0.578947 1.08033 0 0.631579 1.11634 0 0.684211 1.15235 0 0.736842 1.18837 0 0.789474 1.22438 0 0.842105 1.26039 0 0.894737 1.2964 0 0.947368 1.33241 0 1 1.36842 0 0 0.736842 0 0.0526316 0.775623 0 0.105263 0.814404 0 0.157895 0.853186 0 0.210526 0.891967 0 0.263158 0.930748 0 0.315789 0.969529 0 0.368421 1.00831 0 0.421053 1.04709 0 0.473684 1.08587 0 0.526316 1.12465 0 0.578947 1.16343 0 0.631579 1.20222 0 0.684211 1.241 0 0.736842 1.27978 0 0.789474 1.31856 0 0.842105 1.35734 0 0.894737 1.39612 0 0.947368 1.4349 0 1 1.47368 0 0 0.789474 0 0.0526316 0.831025 0 0.105263 0.872576 0 0.157895 0.914127 0 0.210526 0.955679 0 0.263158 0.99723 0 0.315789 1.03878 0 0.368421 1.08033 0 0.421053 1.12188 0 0.473684 1.16343 0 0.526316 1.20499 0 0.578947 1.24654 0 0.631579 1.28809 0 0.684211 1.32964 0 0.736842 1.37119 0 0.789474 1.41274 0 0.842105 1.45429 0 0.894737 1.49584 0 0.947368 1.5374 0 1 1.57895 0 0 0.842105 0 0.0526316 0.886427 0 0.105263 0.930748 0 0.157895 0.975069 0 0.210526 1.01939 0 0.263158 1.06371 0 0.315789 1.10803 0 0.368421 1.15235 0 0.421053 1.19668 0 0.473684 1.241 0 0.526316 1.28532 0 0.578947 1.32964 0 0.631579 1.37396 0 0.684211 1.41828 0 0.736842 1.4626 0 0.789474 1.50693 0 0.842105 1.55125 0 0.894737 1.59557 0 0.947368 1.63989 0 1 1.68421 0 0 0.894737 0 0.0526316 0.941828 0 0.105263 0.98892 0 0.157895 1.03601 0 0.210526 1.0831 0 0.263158 1.13019 0 0.315789 1.17729 0 0.368421 1.22438 0 0.421053 1.27147 0 0.473684 1.31856 0 0.526316 1.36565 0 0.578947 1.41274 0 0.631579 1.45983 0 0.684211 1.50693 0 0.736842 1.55402 0 0.789474 1.60111 0 0.842105 1.6482 0 0.894737 1.69529 0 0.947368 1.74238 0 1 1.78947 0 0 0.947368 0 0.0526316 0.99723 0 0.105263 1.04709 0 0.157895 1.09695 0 0.210526 1.14681 0 0.263158 1.19668 0 0.315789 1.24654 0 0.368421 1.2964 0 0.421053 1.34626 0 0.473684 1.39612 0 0.526316 1.44598 0 0.578947 1.49584 0 0.631579 1.54571 0 0.684211 1.59557 0 0.736842 1.64543 0 0.789474 1.69529 0 0.842105 1.74515 0 0.894737 1.79501 0 0.947368 1.84488 0 1 1.89474 0 0 1 0 0.0526316 1.05263 0 0.105263 1.10526 0 0.157895 1.15789 0 0.210526 1.21053 0 0.263158 1.26316 0 0.315789 1.31579 0 0.368421 1.36842 0 0.421053 1.42105 0 0.473684 1.47368 0 0.526316 1.52632 0 0.578947 1.57895 0 0.631579 1.63158 0 0.684211 1.68421 0 0.736842 1.73684 0 0.789474 1.78947 0 0.842105 1.84211 0 0.894737 1.89474 0 0.947368 1.94737 0 1 2 0 
</DataArray>
</Points> 
</Piece> 
</StructuredGrid> 
</VTKFile> 
