<?xml version="1.0"?> 
<VTKFile type="StructuredGrid" version="0.1"> 
<StructuredGrid WholeExtent="0 19 0 19 0 0"> 
<Piece Extent="0 19 0 19 0 0"> 
<PointData>
<DataArray type="Float32" Name="velocity" format="ascii" NumberOfComponents="3"> 
0 0 0 0.0526073 0 0 0.105069 0 0 0.157239 0 0 0.208975 0 0 0.260131 0 0 0.310567 0 0 0.360143 0 0 0.408721 0 0 0.456168 0 0 0.502351 0 0 0.547143 0 0 0.59042 0 0 0.632061 0 0 0.671953 0 0 0.709983 0 0 0.746047 0 0 0.780044 0 0 0.811882 0 0 0.841471 0 0 0 -0.0526073 0 0.0525266 -0.0552967 0 0.104891 -0.0578171 0 0.156948 -0.0601465 0 0.208551 -0.0622631 0 0.259556 -0.064146 0 0.309823 -0.0657751 0 0.359209 -0.0671312 0 0.407579 -0.0681962 0 0.454796 -0.068953 0 0.500731 -0.0693858 0 0.545255 -0.06948 0 0.588244 -0.0692223 0 0.62958 -0.0686009 0 0.669147 -0.0676055 0 0.706836 -0.0662273 0 0.742543 -0.0644592 0 0.776169 -0.0622957 0 0.807621 -0.059733 0 0.836813 -0.056769 0 0 -0.105069 0 0.0522847 -0.110424 0 0.104359 -0.115439 0 0.156073 -0.12007 0 0.20728 -0.124274 0 0.257835 -0.128009 0 0.307593 -0.131235 0 0.356413 -0.133914 0 0.404157 -0.136011 0 0.45069 -0.137491 0 0.495881 -0.138324 0 0.539603 -0.13848 0 0.581734 -0.137934 0 0.622155 -0.136663 0 0.660754 -0.134646 0 0.697424 -0.131868 0 0.732065 -0.128313 0 0.764581 -0.123972 0 0.794884 -0.118839 0 0.822892 -0.112909 0 0 -0.157239 0 0.0518823 -0.165212 0 0.103473 -0.17267 0 0.154619 -0.179547 0 0.205169 -0.18578 0 0.254974 -0.191305 0 0.303889 -0.196065 0 0.351769 -0.200003 0 0.398476 -0.203066 0 0.443874 -0.205203 0 0.487833 -0.20637 0 0.530227 -0.206525 0 0.570936 -0.20563 0 0.609844 -0.203652 0 0.646843 -0.200563 0 0.68183 -0.196339 0 0.714711 -0.190962 0 0.745396 -0.184417 0 0.773804 -0.176698 0 0.799861 -0.1678 0 0 -0.208975 0 0.0513208 -0.219493 0 0.102237 -0.229317 0 0.152591 -0.238358 0 0.202225 -0.246532 0 0.250987 -0.253757 0 0.298728 -0.259956 0 0.345301 -0.265055 0 0.390567 -0.268985 0 0.434389 -0.271681 0 0.476639 -0.273085 0 0.517192 -0.273144 0 0.55593 -0.27181 0 0.592744 -0.269042 0 0.627531 -0.264805 0 0.660193 -0.25907 0 0.690644 -0.251817 0 0.718805 -0.24303 0 0.744603 -0.232702 0 0.767976 -0.220833 0 0 -0.260131 0 0.0506018 -0.273101 0 0.100656 -0.285188 0 0.149996 -0.296284 0 0.198461 -0.306284 0 0.245891 -0.315088 0 0.292134 -0.322601 0 0.337043 -0.328732 0 0.380474 -0.3334 0 0.422292 -0.336525 0 0.46237 -0.338039 0 0.500587 -0.337878 0 0.536828 -0.335987 0 0.570991 -0.332319 0 0.602978 -0.326835 0 0.632704 -0.319505 0 0.660091 -0.310306 0 0.685071 -0.299227 0 0.707586 -0.286264 0 0.72759 -0.271421 0 0 -0.310567 0 0.0497275 -0.32587 0 0.0987337 -0.340094 0 0.146845 -0.35311 0 0.193891 -0.364793 0 0.239709 -0.375026 0 0.284141 -0.383699 0 0.327037 -0.390705 0 0.368253 -0.395951 0 0.407656 -0.399346 0 0.445119 -0.400813 0 0.480526 -0.40028 0 0.51377 -0.397688 0 0.544753 -0.392987 0 0.57339 -0.386137 0 0.599606 -0.377108 0 0.623337 -0.365882 0 0.64453 -0.352452 0 0.663143 -0.336821 0 0.679148 -0.319005 0 0 -0.360143 0 0.0487006 -0.37764 0 0.0964777 -0.39385 0 0.143148 -0.408624 0 0.188534 -0.421822 0 0.232467 -0.433308 0 0.274785 -0.442957 0 0.315335 -0.450653 0 0.353974 -0.456288 0 0.390569 -0.459766 0 0.424998 -0.461001 0 0.457149 -0.459919 0 0.486925 -0.456459 0 0.514238 -0.450569 0 0.539015 -0.442214 0 0.561194 -0.431368 0 0.580729 -0.41802 0 0.597584 -0.402174 0 0.61174 -0.383843 0 0.623189 -0.363057 0 0 -0.408721 0 0.0475243 -0.428251 0 0.0938952 -0.446273 0 0.13892 -0.462622 0 0.182413 -0.477139 0 0.224198 -0.489675 0 0.264112 -0.500092 0 0.301998 -0.508263 0 0.337715 -0.514073 0 0.371133 -0.517421 0 0.402135 -0.518216 0 0.430617 -0.516384 0 0.456492 -0.511865 0 0.479685 -0.504613 0 0.500138 -0.494598 0 0.517808 -0.481804 0 0.532666 -0.466233 0 0.544701 -0.4479 0 0.553916 -0.426837 0 0.56033 -0.403091 0 0 -0.456168 0 0.0462021 -0.477547 0 0.0909951 -0.497187 0 0.134176 -0.514902 0 0.175551 -0.53052 0 0.214939 -0.543878 0 0.252173 -0.55483 0 0.287096 -0.563239 0 0.319569 -0.568985 0 0.349466 -0.571964 0 0.376678 -0.572088 0 0.401112 -0.569285 0 0.422694 -0.563499 0 0.441365 -0.554695 0 0.457085 -0.542852 0 0.469831 -0.52797 0 0.4796 -0.510066 0 0.486405 -0.489175 0 0.490278 -0.46535 0 0.491269 -0.438662 0 0 -0.502351 0 0.0447382 -0.525379 0 0.0877872 -0.546418 0 0.128933 -0.56527 0 0.167977 -0.581748 0 0.20473 -0.595679 0 0.239024 -0.606907 0 0.270705 -0.615293 0 0.299635 -0.620715 0 0.325697 -0.623069 0 0.348792 -0.622271 0 0.36884 -0.618256 0 0.385782 -0.61098 0 0.39958 -0.60042 0 0.410215 -0.586573 0 0.41769 -0.569456 0 0.42203 -0.549109 0 0.423277 -0.52559 0 0.421495 -0.49898 0 0.416769 -0.469377 0 0 -0.547143 0 0.043137 -0.571598 0 0.0842822 -0.593801 0 0.123213 -0.61354 0 0.159721 -0.630615 0 0.193617 -0.644848 0 0.22473 -0.656076 0 0.25291 -0.664158 0 0.278026 -0.668975 0 0.29997 -0.670427 0 0.318656 -0.66844 0 0.334021 -0.66296 0 0.346026 -0.653959 0 0.354656 -0.641431 0 0.359919 -0.625396 0 0.361847 -0.605895 0 0.360495 -0.582994 0 0.355942 -0.556783 0 0.348288 -0.527372 0 0.337656 -0.494896 0 0 -0.59042 0 0.0414034 -0.616063 0 0.0804922 -0.639176 0 0.117034 -0.659532 0 0.150817 -0.676924 0 0.181648 -0.691167 0 0.209359 -0.702099 0 0.233804 -0.709579 0 0.254863 -0.713494 0 0.272439 -0.713754 0 0.286465 -0.710298 0 0.296897 -0.703089 0 0.303721 -0.692118 0 0.306948 -0.677406 0 0.306618 -0.658996 0 0.302797 -0.636963 0 0.295575 -0.611403 0 0.28507 -0.582442 0 0.271425 -0.550229 0 0.254805 -0.514936 0 0 -0.632061 0 0.0395428 -0.658638 0 0.0764299 -0.682388 0 0.110421 -0.703075 0 0.141301 -0.720486 0 0.168877 -0.734433 0 0.192984 -0.744756 0 0.213486 -0.751321 0 0.230274 -0.754024 0 0.24327 -0.752789 0 0.252426 -0.747574 0 0.257724 -0.738364 0 0.259177 -0.725177 0 0.25683 -0.708061 0 0.250757 -0.687094 0 0.241062 -0.662384 0 0.227878 -0.63407 0 0.211366 -0.602315 0 0.191714 -0.567311 0 0.169133 -0.529276 0 0 -0.671952 0 0.0375608 -0.699192 0 0.0721089 -0.723291 0 0.103399 -0.744007 0 0.131211 -0.761124 0 0.155359 -0.774454 0 0.175684 -0.783843 0 0.192061 -0.789167 0 0.204398 -0.790338 0 0.212638 -0.787298 0 0.216759 -0.780029 0 0.216772 -0.768544 0 0.212723 -0.752892 0 0.204695 -0.733156 0 0.192802 -0.709454 0 0.177191 -0.681935 0 0.158041 -0.650781 0 0.135562 -0.616203 0 0.10999 -0.578439 0 0.0815885 -0.537757 0 0 -0.709983 0 0.0354636 -0.7376 0 0.0675441 -0.761748 0 0.0959919 -0.782178 0 0.12059 -0.798674 0 0.141155 -0.811054 0 0.157542 -0.819173 0 0.16964 -0.822922 0 0.177379 -0.822232 0 0.180728 -0.817073 0 0.179694 -0.807453 0 0.174323 -0.793418 0 0.164702 -0.775057 0 0.150953 -0.752494 0 0.133236 -0.72589 0 0.111749 -0.695441 0 0.08672 -0.66138 0 0.0584108 -0.623967 0 0.027112 -0.583496 0 -0.00685876 -0.540284 0 0 -0.746047 0 0.0332575 -0.773745 0 0.0627507 -0.797627 0 0.0882288 -0.817444 0 0.109479 -0.832982 0 0.126328 -0.84407 0 0.138644 -0.850575 0 0.146339 -0.85241 0 0.149369 -0.84953 0 0.147731 -0.841935 0 0.14147 -0.829668 0 0.130672 -0.812817 0 0.115466 -0.791512 0 0.0960249 -0.765923 0 0.0725585 -0.736264 0 0.0453167 -0.702783 0 0.0145842 -0.665766 0 -0.0193208 -0.625532 0 -0.0560505 -0.582429 0 -0.0952301 -0.536831 0 0 -0.780044 0 0.0309494 -0.807515 0 0.0577451 -0.830808 0 0.0801381 -0.849675 0 0.0979234 -0.863911 0 0.110942 -0.873356 0 0.119082 -0.877899 0 0.12228 -0.877478 0 0.120523 -0.872078 0 0.113846 -0.861734 0 0.102334 -0.846533 0 0.0861185 -0.826606 0 0.06538 -0.802133 0 0.0403429 -0.773338 0 0.0112745 -0.74049 0 -0.0215176 -0.703896 0 -0.0576888 -0.6639 0 -0.0968608 -0.620881 0 -0.138625 -0.575249 0 -0.182548 -0.527435 0 0 -0.811882 0 0.0285463 -0.838808 0 0.0525441 -0.861179 0 0.0717499 -0.878752 0 0.0859707 -0.891334 0 0.0950659 -0.898784 0 0.0989487 -0.901015 0 0.0975868 -0.897996 0 0.0910035 -0.889749 0 0.0792763 -0.876352 0 0.0625373 -0.857937 0 0.0409708 -0.834689 0 0.0148121 -0.806842 0 -0.0156555 -0.774681 0 -0.0501032 -0.738532 0 -0.0881607 -0.698769 0 -0.12942 -0.655798 0 -0.173438 -0.610061 0 -0.219744 -0.56203 0 -0.267844 -0.5122 0 0 -0.841471 0 0.0260557 -0.867527 0 0.0471653 -0.888636 0 0.0630953 -0.904566 0 0.0736692 -0.91514 0 0.07877 -0.920241 0 0.0783411 -0.919812 0 0.0723875 -0.913859 0 0.060975 -0.902446 0 0.0442298 -0.885701 0 0.0223374 -0.863809 0 -0.00445977 -0.837011 0 -0.0358652 -0.805606 0 -0.0715312 -0.76994 0 -0.111063 -0.730408 0 -0.154023 -0.687448 0 -0.199935 -0.641536 0 -0.248292 -0.593179 0 -0.298557 -0.542914 0 -0.350176 -0.491295 0 </DataArray> 
<DataArray type="Float32" Name="divergence" format="ascii" NumberOfComponents="1"> 
2.22045e-16 -6.38378e-16 1.77636e-15 -9.02924e-16 -4.02456e-15 4.82947e-15 2.14759e-15 1.08247e-15 1.22125e-15 2.2482e-15 -5.77316e-15 1.88586e-15 -1.56819e-15 3.38618e-15 -6.22072e-15 -1.80411e-14 -1.66533e-15 -3.15858e-14 1.18239e-14 -9.4591e-14 -2.77556e-15 1.56125e-16 1.02696e-15 3.116e-15 3.35149e-15 2.22045e-16 -2.92995e-15 -1.90126e-15 -8.32667e-16 -5.29091e-15 -7.99361e-15 -4.77862e-15 1.02696e-15 7.97973e-15 -1.08915e-14 1.07137e-14 -1.1352e-14 -8.0335e-15 -6.42542e-15 -5.63438e-14 1.33227e-15 4.38538e-15 -3.66374e-15 -9.35016e-16 3.33067e-16 -3.88578e-15 3.83721e-15 -2.9976e-15 -8.88178e-16 -1.56264e-14 -1.77636e-15 7.24681e-16 -8.32667e-17 4.44089e-16 1.19314e-14 -2.88658e-15 -2.22045e-15 3.41394e-15 7.54952e-15 -4.26326e-14 -8.18789e-16 1.0816e-15 -6.59195e-17 -1.97666e-15 2.74086e-16 -1.59942e-15 2.95076e-15 -6.23807e-15 -3.13638e-15 -4.40533e-15 -2.22045e-16 -5.46804e-16 6.13311e-15 1.25941e-15 2.09251e-15 -3.06699e-15 -4.54498e-15 -5.1131e-15 -3.05311e-16 -6.15966e-14 -4.44089e-16 -3.41394e-15 3.66374e-15 2.39392e-16 8.60423e-15 -8.10463e-15 -9.71445e-16 8.60423e-15 6.66134e-16 -8.32667e-17 -3.10862e-15 5.27226e-15 -6.99441e-15 2.10942e-14 1.0679e-14 2.63678e-15 -2.22045e-16 -1.17406e-14 4.44089e-15 -1.64313e-14 6.21725e-15 3.71925e-15 4.44089e-16 -2.91434e-16 0 5.77316e-15 9.57567e-15 0 -4.44089e-16 5.55112e-17 -8.88178e-16 6.1201e-15 1.66533e-15 8.88178e-16 -4.20497e-15 1.52101e-14 0 -2.7478e-15 1.24345e-14 -7.37188e-14 1.08247e-14 -1.0339e-14 2.55351e-15 -1.79717e-15 5.80785e-15 -8.32667e-17 1.44329e-15 1.33227e-15 -6.93889e-16 6.93889e-18 2.13718e-15 6.50803e-15 3.25434e-15 5.88418e-15 1.32932e-14 2.40086e-15 2.10942e-15 1.47903e-14 -1.8055e-14 1.10467e-14 -8.88178e-16 -3.60822e-15 4.44089e-15 3.08434e-15 5.55112e-16 7.10543e-15 -1.4988e-15 4.55191e-15 5.77316e-15 2.7478e-15 -3.9968e-15 4.68896e-15 -1.65423e-14 -3.9968e-15 -1.32394e-14 -2.55351e-15 -5.77316e-15 -1.21847e-14 9.65894e-15 8.43769e-15 -1.24345e-14 -8.88178e-16 -7.10543e-15 7.75768e-15 -7.10543e-15 9.76996e-15 1.67089e-14 -3.9968e-15 1.77636e-15 1.22125e-15 -4.44089e-15 -3.94129e-15 1.13243e-14 3.55271e-15 5.71765e-15 5.10703e-15 1.77636e-15 -1.77636e-15 3.77476e-15 -1.06581e-14 3.33067e-15 1.54043e-15 -1.31561e-14 4.42008e-15 -1.58207e-15 -7.21645e-15 8.04912e-16 6.66134e-16 1.09912e-14 1.40166e-15 -7.93809e-15 1.76855e-15 -1.62093e-14 2.72005e-15 -5.92582e-15 1.17684e-14 1.44329e-15 3.33067e-15 1.94289e-15 1.88738e-14 1.77636e-15 3.66374e-15 5.32907e-15 8.29892e-15 -6.10623e-15 7.99361e-15 -1.55709e-14 -1.02141e-14 2.22045e-15 6.60583e-15 3.55271e-15 -4.66988e-15 -2.22045e-15 1.42109e-14 -1.38778e-16 6.88338e-15 -8.88178e-15 8.24341e-15 -8.65974e-15 3.10862e-14 1.63064e-14 -1.39971e-14 1.80411e-16 2.5263e-15 -7.27283e-15 -3.58047e-15 -9.80943e-15 3.47465e-15 -9.87058e-15 -3.29988e-15 -1.36245e-14 3.6101e-15 -7.4914e-15 1.11213e-14 2.42146e-15 -5.25361e-15 -1.11664e-14 -1.28348e-15 2.95163e-15 4.73857e-14 8.88178e-15 -1.77636e-15 5.55112e-15 5.1105e-15 -2.45359e-14 9.10383e-15 1.77497e-14 -2.87548e-14 7.10543e-15 -3.39173e-14 1.11022e-16 1.22836e-14 1.17684e-14 -4.10783e-15 1.79509e-14 1.97065e-14 -6.66134e-15 1.60982e-15 -9.99201e-16 -2.59792e-14 -8.88178e-15 6.99441e-15 5.77316e-15 9.65894e-15 4.44089e-16 -1.24345e-14 -7.66054e-15 4.88498e-15 -1.06581e-14 1.43219e-14 -1.55431e-14 -2.88311e-15 -6.66134e-16 1.19904e-14 -8.74301e-16 1.4877e-14 -7.10543e-15 -1.44329e-14 2.44249e-15 1.24345e-14 -2.22045e-15 1.60566e-14 2.19269e-15 1.72518e-15 -2.0775e-14 -7.43849e-15 9.12291e-15 -5.96745e-16 -6.38378e-15 4.7462e-15 -2.47996e-14 6.47377e-16 1.45162e-14 -2.08167e-15 -1.21517e-15 -4.63518e-15 -7.93809e-15 2.5379e-15 1.11022e-16 1.39333e-14 -1.5099e-14 -4.27436e-15 -1.5099e-14 -1.01169e-14 7.77156e-15 9.76996e-15 -1.13798e-15 1.08802e-14 -7.99361e-15 -2.05391e-14 1.15463e-14 1.22584e-14 -1.66533e-15 -9.99201e-15 1.19904e-14 -7.21645e-15 4.21885e-15 -1.20737e-15 -8.99281e-15 -1.42109e-14 1.77636e-14 5.10703e-15 1.24345e-14 1.35586e-14 -9.32587e-15 8.88178e-15 9.71445e-15 -8.88178e-16 8.88178e-15 -1.07692e-14 5.32907e-15 5.1105e-15 1.37668e-14 1.46549e-14 -2.55351e-15 5.77316e-15 -4.44089e-16 1.88738e-15 1.33227e-15 4.44089e-15 2.08722e-14 1.01308e-14 -1.22125e-15 4.83988e-16 -1.69309e-14 -1.11022e-15 -4.78784e-15 -1.0103e-14 1.12133e-14 6.53644e-15 -6.10623e-16 1.09556e-14 2.10942e-15 -8.77076e-15 4.52242e-15 5.68989e-16 -5.55112e-17 -7.66748e-16 -2.58127e-15 1.79856e-14 -1.42109e-14 -1.55431e-14 -6.21725e-15 -1.65146e-15 -1.06581e-14 6.66134e-15 3.96905e-15 -7.10543e-15 8.88178e-16 -1.27121e-14 -8.21565e-15 -4.25875e-15 -7.77156e-16 -1.55431e-15 4.17028e-15 2.88658e-15 -1.77636e-15 6.6197e-15 -1.14353e-14 8.43769e-15 1.13687e-13 -1.77636e-15 -1.91847e-13 -1.03362e-13 8.52651e-14 -2.84217e-14 9.72555e-14 4.9738e-14 -1.49214e-13 -1.52767e-13 4.9738e-14 -5.09315e-14 6.30607e-14 1.42109e-14 2.57572e-14 -5.24025e-14 -1.42109e-14 -4.30767e-14 0 2.30926e-14 </DataArray> 
</PointData> 
<Points> 
<DataArray type="Float32" NumberOfComponents="3"> 
0 0 0 0.0526316 0 0 0.105263 0 0 0.157895 0 0 0.210526 0 0 0.263158 0 0 0.315789 0 0 0.368421 0 0 0.421053 0 0 0.473684 0 0 0.526316 0 0 0.578947 0 0 0.631579 0 0 0.684211 0 0 0.736842 0 0 0.789474 0 0 0.842105 0 0 0.894737 0 0 0.947368 0 0 1 0 0 0 0.0526316 0 0.0526316 0.0554017 0 0.105263 0.0581717 0 0.157895 0.0609418 0 0.210526 0.0637119 0 0.263158 0.066482 0 0.315789 0.0692521 0 0.368421 0.0720222 0 0.421053 0.0747922 0 0.473684 0.0775623 0 0.526316 0.0803324 0 0.578947 0.0831025 0 0.631579 0.0858726 0 0.684211 0.0886427 0 0.736842 0.0914127 0 0.789474 0.0941828 0 0.842105 0.0969529 0 0.894737 0.099723 0 0.947368 0.102493 0 1 0.105263 0 0 0.105263 0 0.0526316 0.110803 0 0.105263 0.116343 0 0.157895 0.121884 0 0.210526 0.127424 0 0.263158 0.132964 0 0.315789 0.138504 0 0.368421 0.144044 0 0.421053 0.149584 0 0.473684 0.155125 0 0.526316 0.160665 0 0.578947 0.166205 0 0.631579 0.171745 0 0.684211 0.177285 0 0.736842 0.182825 0 0.789474 0.188366 0 0.842105 0.193906 0 0.894737 0.199446 0 0.947368 0.204986 0 1 0.210526 0 0 0.157895 0 0.0526316 0.166205 0 0.105263 0.174515 0 0.157895 0.182825 0 0.210526 0.191136 0 0.263158 0.199446 0 0.315789 0.207756 0 0.368421 0.216066 0 0.421053 0.224377 0 0.473684 0.232687 0 0.526316 0.240997 0 0.578947 0.249307 0 0.631579 0.257618 0 0.684211 0.265928 0 0.736842 0.274238 0 0.789474 0.282548 0 0.842105 0.290859 0 0.894737 0.299169 0 0.947368 0.307479 0 1 0.315789 0 0 0.210526 0 0.0526316 0.221607 0 0.105263 0.232687 0 0.157895 0.243767 0 0.210526 0.254848 0 0.263158 0.265928 0 0.315789 0.277008 0 0.368421 0.288089 0 0.421053 0.299169 0 0.473684 0.310249 0 0.526316 0.32133 0 0.578947 0.33241 0 0.631579 0.34349 0 0.684211 0.354571 0 0.736842 0.365651 0 0.789474 0.376731 0 0.842105 0.387812 0 0.894737 0.398892 0 0.947368 0.409972 0 1 0.421053 0 0 0.263158 0 0.0526316 0.277008 0 0.105263 0.290859 0 0.157895 0.304709 0 0.210526 0.31856 0 0.263158 0.33241 0 0.315789 0.34626 0 0.368421 0.360111 0 0.421053 0.373961 0 0.473684 0.387812 0 0.526316 0.401662 0 0.578947 0.415512 0 0.631579 0.429363 0 0.684211 0.443213 0 0.736842 0.457064 0 0.789474 0.470914 0 0.842105 0.484765 0 0.894737 0.498615 0 0.947368 0.512465 0 1 0.526316 0 0 0.315789 0 0.0526316 0.33241 0 0.105263 0.34903 0 0.157895 0.365651 0 0.210526 0.382271 0 0.263158 0.398892 0 0.315789 0.415512 0 0.368421 0.432133 0 0.421053 0.448753 0 0.473684 0.465374 0 0.526316 0.481994 0 0.578947 0.498615 0 0.631579 0.515235 0 0.684211 0.531856 0 0.736842 0.548476 0 0.789474 0.565097 0 0.842105 0.581717 0 0.894737 0.598338 0 0.947368 0.614958 0 1 0.631579 0 0 0.368421 0 0.0526316 0.387812 0 0.105263 0.407202 0 0.157895 0.426593 0 0.210526 0.445983 0 0.263158 0.465374 0 0.315789 0.484765 0 0.368421 0.504155 0 0.421053 0.523546 0 0.473684 0.542936 0 0.526316 0.562327 0 0.578947 0.581717 0 0.631579 0.601108 0 0.684211 0.620499 0 0.736842 0.639889 0 0.789474 0.65928 0 0.842105 0.67867 0 0.894737 0.698061 0 0.947368 0.717452 0 1 0.736842 0 0 0.421053 0 0.0526316 0.443213 0 0.105263 0.465374 0 0.157895 0.487535 0 0.210526 0.509695 0 0.263158 0.531856 0 0.315789 0.554017 0 0.368421 0.576177 0 0.421053 0.598338 0 0.473684 0.620499 0 0.526316 0.642659 0 0.578947 0.66482 0 0.631579 0.686981 0 0.684211 0.709141 0 0.736842 0.731302 0 0.789474 0.753463 0 0.842105 0.775623 0 0.894737 0.797784 0 0.947368 0.819945 0 1 0.842105 0 0 0.473684 0 0.0526316 0.498615 0 0.105263 0.523546 0 0.157895 0.548476 0 0.210526 0.573407 0 0.263158 0.598338 0 0.315789 0.623269 0 0.368421 0.648199 0 0.421053 0.67313 0 0.473684 0.698061 0 0.526316 0.722992 0 0.578947 0.747922 0 0.631579 0.772853 0 0.684211 0.797784 0 0.736842 0.822715 0 0.789474 0.847645 0 0.842105 0.872576 0 0.894737 0.897507 0 0.947368 0.922438 0 1 0.947368 0 0 0.526316 0 0.0526316 0.554017 0 0.105263 0.581717 0 0.157895 0.609418 0 0.210526 0.637119 0 0.263158 0.66482 0 0.315789 0.692521 0 0.368421 0.720222 0 0.421053 0.747922 0 0.473684 0.775623 0 0.526316 0.803324 0 0.578947 0.831025 0 0.631579 0.858726 0 0.684211 0.886427 0 0.736842 0.914127 0 0.789474 0.941828 0 0.842105 0.969529 0 0.894737 0.99723 0 0.947368 1.02493 0 1 1.05263 0 0 0.578947 0 0.0526316 0.609418 0 0.105263 0.639889 0 0.157895 0.67036 0 0.210526 0.700831 0 0.263158 0.731302 0 0.315789 0.761773 0 0.368421 0.792244 0 0.421053 0.822715 0 0.473684 0.853186 0 0.526316 0.883657 0 0.578947 0.914127 0 0.631579 0.944598 0 0.684211 0.975069 0 0.736842 1.00554 0 0.789474 1.03601 0 0.842105 1.06648 0 0.894737 1.09695 0 0.947368 1.12742 0 1 1.15789 0 0 0.631579 0 0.0526316 0.66482 0 0.105263 0.698061 0 0.157895 0.731302 0 0.210526 0.764543 0 0.263158 0.797784 0 0.315789 0.831025 0 0.368421 0.864266 0 0.421053 0.897507 0 0.473684 0.930748 0 0.526316 0.963989 0 0.578947 0.99723 0 0.631579 1.03047 0 0.684211 1.06371 0 0.736842 1.09695 0 0.789474 1.13019 0 0.842105 1.16343 0 0.894737 1.19668 0 0.947368 1.22992 0 1 1.26316 0 0 0.684211 0 0.0526316 0.720222 0 0.105263 0.756233 0 0.157895 0.792244 0 0.210526 0.828255 0 0.263158 0.864266 0 0.315789 0.900277 0 0.368421 0.936288 0 0.421053 0.972299 0 0.473684 1.00831 0 0.526316 1.04432 0 0.578947 1.08033 0 0.631579 1.11634 0 0.684211 1.15235 0 0.736842 1.18837 0 0.789474 1.22438 0 0.842105 1.26039 0 0.894737 1.2964 0 0.947368 1.33241 0 1 1.36842 0 0 0.736842 0 0.0526316 0.775623 0 0.105263 0.814404 0 0.157895 0.853186 0 0.210526 0.891967 0 0.263158 0.930748 0 0.315789 0.969529 0 0.368421 1.00831 0 0.421053 1.04709 0 0.473684 1.08587 0 0.526316 1.12465 0 0.578947 1.16343 0 0.631579 1.20222 0 0.684211 1.241 0 0.736842 1.27978 0 0.789474 1.31856 0 0.842105 1.35734 0 0.894737 1.39612 0 0.947368 1.4349 0 1 1.47368 0 0 0.789474 0 0.0526316 0.831025 0 0.105263 0.872576 0 0.157895 0.914127 0 0.210526 0.955679 0 0.263158 0.99723 0 0.315789 1.03878 0 0.368421 1.08033 0 0.421053 1.12188 0 0.473684 1.16343 0 0.526316 1.20499 0 0.578947 1.24654 0 0.631579 1.28809 0 0.684211 1.32964 0 0.736842 1.37119 0 0.789474 1.41274 0 0.842105 1.45429 0 0.894737 1.49584 0 0.947368 1.5374 0 1 1.57895 0 0 0.842105 0 0.0526316 0.886427 0 0.105263 0.930748 0 0.157895 0.975069 0 0.210526 1.01939 0 0.263158 1.06371 0 0.315789 1.10803 0 0.368421 1.15235 0 0.421053 1.19668 0 0.473684 1.241 0 0.526316 1.28532 0 0.578947 1.32964 0 0.631579 1.37396 0 0.684211 1.41828 0 0.736842 1.4626 0 0.789474 1.50693 0 0.842105 1.55125 0 0.894737 1.59557 0 0.947368 1.63989 0 1 1.68421 0 0 0.894737 0 0.0526316 0.941828 0 0.105263 0.98892 0 0.157895 1.03601 0 0.210526 1.0831 0 0.263158 1.13019 0 0.315789 1.17729 0 0.368421 1.22438 0 0.421053 1.27147 0 0.473684 1.31856 0 0.526316 1.36565 0 0.578947 1.41274 0 0.631579 1.45983 0 0.684211 1.50693 0 0.736842 1.55402 0 0.789474 1.60111 0 0.842105 1.6482 0 0.894737 1.69529 0 0.947368 1.74238 0 1 1.78947 0 0 0.947368 0 0.0526316 0.99723 0 0.105263 1.04709 0 0.157895 1.09695 0 0.210526 1.14681 0 0.263158 1.19668 0 0.315789 1.24654 0 0.368421 1.2964 0 0.421053 1.34626 0 0.473684 1.39612 0 0.526316 1.44598 0 0.578947 1.49584 0 0.631579 1.54571 0 0.684211 1.59557 0 0.736842 1.64543 0 0.789474 1.69529 0 0.842105 1.74515 0 0.894737 1.79501 0 0.947368 1.84488 0 1 1.89474 0 0 1 0 0.0526316 1.05263 0 0.105263 1.10526 0 0.157895 1.15789 0 0.210526 1.21053 0 0.263158 1.26316 0 0.315789 1.31579 0 0.368421 1.36842 0 0.421053 1.42105 0 0.473684 1.47368 0 0.526316 1.52632 0 0.578947 1.57895 0 0.631579 1.63158 0 0.684211 1.68421 0 0.736842 1.73684 0 0.789474 1.78947 0 0.842105 1.84211 0 0.894737 1.89474 0 0.947368 1.94737 0 1 2 0 
</DataArray>
</Points> 
</Piece> 
</StructuredGrid> 
</VTKFile> 
