<?xml version="1.0"?> 
<VTKFile type="StructuredGrid" version="0.1"> 
<StructuredGrid WholeExtent="0 19 0 19 0 0"> 
<Piece Extent="0 19 0 19 0 0"> 
<PointData>
<DataArray type="Float32" Name="u" format="ascii" NumberOfComponents="1"> 
-6.33668e-25 8.56168e-26 8.88795e-27 -4.68938e-26 7.05389e-27 2.41017e-26 -1.78519e-27 -1.36778e-26 -3.09402e-27 7.59911e-27 7.59911e-27 -3.09402e-27 -1.36778e-26 -1.78519e-27 2.41017e-26 7.05389e-27 -4.68938e-26 8.88795e-27 8.56168e-26 -6.33668e-25 5.45105e-25 0.00193463 0.00726964 0.0152207 0.0248166 0.0350207 0.0447948 0.0531186 0.059193 0.0623801 0.0623801 0.059193 0.0531186 0.0447948 0.0350207 0.0248166 0.0152207 0.00726964 0.00193463 5.45105e-25 -1.26591e-24 0.002669 0.0100477 0.0210446 0.0343153 0.0484272 0.0619443 0.0734556 0.0818559 0.0862634 0.0862634 0.0818559 0.0734556 0.0619443 0.0484272 0.0343153 0.0210446 0.0100477 0.002669 -1.26591e-24 2.8371e-25 0.00157459 0.00593441 0.0124322 0.0202731 0.028611 0.0365975 0.0433988 0.048362 0.0509661 0.0509661 0.048362 0.0433988 0.0365975 0.028611 0.0202731 0.0124322 0.00593441 0.00157459 2.8371e-25 2.14259e-24 -0.000471862 -0.00177273 -0.00371133 -0.0060509 -0.00853882 -0.0109219 -0.0129514 -0.0144325 -0.0152095 -0.0152095 -0.0144325 -0.0129514 -0.0109219 -0.00853882 -0.0060509 -0.00371133 -0.00177273 -0.000471862 2.14259e-24 -7.82513e-25 -0.00213287 -0.00803119 -0.0168219 -0.0274302 -0.0387109 -0.0495162 -0.0587181 -0.0654332 -0.0689564 -0.0689564 -0.0654332 -0.0587181 -0.0495162 -0.0387109 -0.0274302 -0.0168219 -0.00803119 -0.00213287 -7.82513e-25 -3.84658e-24 -0.00256717 -0.00966948 -0.0202549 -0.033029 -0.0466127 -0.0596239 -0.0707043 -0.0787902 -0.0830327 -0.0830327 -0.0787902 -0.0707043 -0.0596239 -0.0466127 -0.033029 -0.0202549 -0.00966948 -0.00256717 -3.84658e-24 9.76639e-25 -0.00128283 -0.00483291 -0.0101241 -0.0165094 -0.0232993 -0.029803 -0.0353416 -0.0393834 -0.041504 -0.041504 -0.0393834 -0.0353416 -0.029803 -0.0232993 -0.0165094 -0.0101241 -0.00483291 -0.00128283 9.76639e-25 7.04543e-24 0.000903687 0.00340314 0.00712834 0.0116238 0.0164042 0.0209832 0.0248826 0.0277283 0.0292213 0.0292213 0.0277283 0.0248826 0.0209832 0.0164042 0.0116238 0.00712834 0.00340314 0.000903687 7.04543e-24 -4.42576e-25 0.00238055 0.00896634 0.018782 0.0306272 0.0432232 0.0552883 0.065563 0.073061 0.076995 0.076995 0.073061 0.065563 0.0552883 0.0432232 0.0306272 0.018782 0.00896634 0.00238055 -4.42576e-25 -1.27322e-23 0.00238055 0.00896634 0.018782 0.0306272 0.0432232 0.0552883 0.065563 0.073061 0.076995 0.076995 0.073061 0.065563 0.0552883 0.0432232 0.0306272 0.018782 0.00896634 0.00238055 -1.27322e-23 -1.82109e-24 0.000903687 0.00340314 0.00712834 0.0116238 0.0164042 0.0209832 0.0248826 0.0277283 0.0292213 0.0292213 0.0277283 0.0248826 0.0209832 0.0164042 0.0116238 0.00712834 0.00340314 0.000903687 -1.82109e-24 2.25719e-23 -0.00128283 -0.00483291 -0.0101241 -0.0165094 -0.0232993 -0.029803 -0.0353416 -0.0393834 -0.041504 -0.041504 -0.0393834 -0.0353416 -0.029803 -0.0232993 -0.0165094 -0.0101241 -0.00483291 -0.00128283 2.25719e-23 7.38507e-24 -0.00256717 -0.00966948 -0.0202549 -0.033029 -0.0466127 -0.0596239 -0.0707043 -0.0787902 -0.0830327 -0.0830327 -0.0787902 -0.0707043 -0.0596239 -0.0466127 -0.033029 -0.0202549 -0.00966948 -0.00256717 7.38507e-24 -3.9974e-23 -0.00213287 -0.00803119 -0.0168219 -0.0274302 -0.0387109 -0.0495162 -0.0587181 -0.0654332 -0.0689564 -0.0689564 -0.0654332 -0.0587181 -0.0495162 -0.0387109 -0.0274302 -0.0168219 -0.00803119 -0.00213287 -3.9974e-23 -1.52568e-23 -0.000471862 -0.00177273 -0.00371133 -0.0060509 -0.00853882 -0.0109219 -0.0129514 -0.0144325 -0.0152095 -0.0152095 -0.0144325 -0.0129514 -0.0109219 -0.00853882 -0.0060509 -0.00371133 -0.00177273 -0.000471862 -1.52568e-23 7.74175e-23 0.00157459 0.00593441 0.0124322 0.0202731 0.028611 0.0365975 0.0433988 0.048362 0.0509661 0.0509661 0.048362 0.0433988 0.0365975 0.028611 0.0202731 0.0124322 0.00593441 0.00157459 7.74175e-23 -1.04971e-23 0.002669 0.0100477 0.0210446 0.0343153 0.0484272 0.0619443 0.0734556 0.0818559 0.0862634 0.0862634 0.0818559 0.0734556 0.0619443 0.0484272 0.0343153 0.0210446 0.0100477 0.002669 -1.04971e-23 -1.41807e-22 0.00193463 0.00726964 0.0152207 0.0248166 0.0350207 0.0447948 0.0531186 0.059193 0.0623801 0.0623801 0.059193 0.0531186 0.0447948 0.0350207 0.0248166 0.0152207 0.00726964 0.00193463 -1.41807e-22 1.01894e-21 1.61716e-18 6.0813e-18 1.27337e-17 2.07615e-17 2.92982e-17 3.74753e-17 4.44391e-17 4.95208e-17 5.21871e-17 5.21871e-17 4.95208e-17 4.44391e-17 3.74753e-17 2.92982e-17 2.07615e-17 1.27337e-17 6.0813e-18 1.61716e-18 1.01894e-21 </DataArray> 
</PointData> 
<Points> 
<DataArray type="Float32" NumberOfComponents="3"> 
1 0 0 0.997147 0.0754898 0 0.988273 0.1527 0 0.972963 0.230959 0 0.950898 0.309504 0 0.921874 0.38749 0 0.885826 0.464017 0 0.842845 0.538157 0 0.793182 0.608985 0 0.737251 0.675619 0 0.675619 0.737251 0 0.608985 0.793182 0 0.538157 0.842845 0 0.464017 0.885826 0 0.38749 0.921874 0 0.309504 0.950898 0 0.230959 0.972963 0 0.1527 0.988273 0 0.0754898 0.997147 0 0 1 0 1 0 0.0526316 0.997147 0.0754898 0.0526316 0.988273 0.1527 0.0526316 0.972963 0.230959 0.0526316 0.950898 0.309504 0.0526316 0.921874 0.38749 0.0526316 0.885826 0.464017 0.0526316 0.842845 0.538157 0.0526316 0.793182 0.608985 0.0526316 0.737251 0.675619 0.0526316 0.675619 0.737251 0.0526316 0.608985 0.793182 0.0526316 0.538157 0.842845 0.0526316 0.464017 0.885826 0.0526316 0.38749 0.921874 0.0526316 0.309504 0.950898 0.0526316 0.230959 0.972963 0.0526316 0.1527 0.988273 0.0526316 0.0754898 0.997147 0.0526316 0 1 0.0526316 1 0 0.105263 0.997147 0.0754898 0.105263 0.988273 0.1527 0.105263 0.972963 0.230959 0.105263 0.950898 0.309504 0.105263 0.921874 0.38749 0.105263 0.885826 0.464017 0.105263 0.842845 0.538157 0.105263 0.793182 0.608985 0.105263 0.737251 0.675619 0.105263 0.675619 0.737251 0.105263 0.608985 0.793182 0.105263 0.538157 0.842845 0.105263 0.464017 0.885826 0.105263 0.38749 0.921874 0.105263 0.309504 0.950898 0.105263 0.230959 0.972963 0.105263 0.1527 0.988273 0.105263 0.0754898 0.997147 0.105263 0 1 0.105263 1 0 0.157895 0.997147 0.0754898 0.157895 0.988273 0.1527 0.157895 0.972963 0.230959 0.157895 0.950898 0.309504 0.157895 0.921874 0.38749 0.157895 0.885826 0.464017 0.157895 0.842845 0.538157 0.157895 0.793182 0.608985 0.157895 0.737251 0.675619 0.157895 0.675619 0.737251 0.157895 0.608985 0.793182 0.157895 0.538157 0.842845 0.157895 0.464017 0.885826 0.157895 0.38749 0.921874 0.157895 0.309504 0.950898 0.157895 0.230959 0.972963 0.157895 0.1527 0.988273 0.157895 0.0754898 0.997147 0.157895 0 1 0.157895 1 0 0.210526 0.997147 0.0754898 0.210526 0.988273 0.1527 0.210526 0.972963 0.230959 0.210526 0.950898 0.309504 0.210526 0.921874 0.38749 0.210526 0.885826 0.464017 0.210526 0.842845 0.538157 0.210526 0.793182 0.608985 0.210526 0.737251 0.675619 0.210526 0.675619 0.737251 0.210526 0.608985 0.793182 0.210526 0.538157 0.842845 0.210526 0.464017 0.885826 0.210526 0.38749 0.921874 0.210526 0.309504 0.950898 0.210526 0.230959 0.972963 0.210526 0.1527 0.988273 0.210526 0.0754898 0.997147 0.210526 0 1 0.210526 1 0 0.263158 0.997147 0.0754898 0.263158 0.988273 0.1527 0.263158 0.972963 0.230959 0.263158 0.950898 0.309504 0.263158 0.921874 0.38749 0.263158 0.885826 0.464017 0.263158 0.842845 0.538157 0.263158 0.793182 0.608985 0.263158 0.737251 0.675619 0.263158 0.675619 0.737251 0.263158 0.608985 0.793182 0.263158 0.538157 0.842845 0.263158 0.464017 0.885826 0.263158 0.38749 0.921874 0.263158 0.309504 0.950898 0.263158 0.230959 0.972963 0.263158 0.1527 0.988273 0.263158 0.0754898 0.997147 0.263158 0 1 0.263158 1 0 0.315789 0.997147 0.0754898 0.315789 0.988273 0.1527 0.315789 0.972963 0.230959 0.315789 0.950898 0.309504 0.315789 0.921874 0.38749 0.315789 0.885826 0.464017 0.315789 0.842845 0.538157 0.315789 0.793182 0.608985 0.315789 0.737251 0.675619 0.315789 0.675619 0.737251 0.315789 0.608985 0.793182 0.315789 0.538157 0.842845 0.315789 0.464017 0.885826 0.315789 0.38749 0.921874 0.315789 0.309504 0.950898 0.315789 0.230959 0.972963 0.315789 0.1527 0.988273 0.315789 0.0754898 0.997147 0.315789 0 1 0.315789 1 0 0.368421 0.997147 0.0754898 0.368421 0.988273 0.1527 0.368421 0.972963 0.230959 0.368421 0.950898 0.309504 0.368421 0.921874 0.38749 0.368421 0.885826 0.464017 0.368421 0.842845 0.538157 0.368421 0.793182 0.608985 0.368421 0.737251 0.675619 0.368421 0.675619 0.737251 0.368421 0.608985 0.793182 0.368421 0.538157 0.842845 0.368421 0.464017 0.885826 0.368421 0.38749 0.921874 0.368421 0.309504 0.950898 0.368421 0.230959 0.972963 0.368421 0.1527 0.988273 0.368421 0.0754898 0.997147 0.368421 0 1 0.368421 1 0 0.421053 0.997147 0.0754898 0.421053 0.988273 0.1527 0.421053 0.972963 0.230959 0.421053 0.950898 0.309504 0.421053 0.921874 0.38749 0.421053 0.885826 0.464017 0.421053 0.842845 0.538157 0.421053 0.793182 0.608985 0.421053 0.737251 0.675619 0.421053 0.675619 0.737251 0.421053 0.608985 0.793182 0.421053 0.538157 0.842845 0.421053 0.464017 0.885826 0.421053 0.38749 0.921874 0.421053 0.309504 0.950898 0.421053 0.230959 0.972963 0.421053 0.1527 0.988273 0.421053 0.0754898 0.997147 0.421053 0 1 0.421053 1 0 0.473684 0.997147 0.0754898 0.473684 0.988273 0.1527 0.473684 0.972963 0.230959 0.473684 0.950898 0.309504 0.473684 0.921874 0.38749 0.473684 0.885826 0.464017 0.473684 0.842845 0.538157 0.473684 0.793182 0.608985 0.473684 0.737251 0.675619 0.473684 0.675619 0.737251 0.473684 0.608985 0.793182 0.473684 0.538157 0.842845 0.473684 0.464017 0.885826 0.473684 0.38749 0.921874 0.473684 0.309504 0.950898 0.473684 0.230959 0.972963 0.473684 0.1527 0.988273 0.473684 0.0754898 0.997147 0.473684 0 1 0.473684 1 0 0.526316 0.997147 0.0754898 0.526316 0.988273 0.1527 0.526316 0.972963 0.230959 0.526316 0.950898 0.309504 0.526316 0.921874 0.38749 0.526316 0.885826 0.464017 0.526316 0.842845 0.538157 0.526316 0.793182 0.608985 0.526316 0.737251 0.675619 0.526316 0.675619 0.737251 0.526316 0.608985 0.793182 0.526316 0.538157 0.842845 0.526316 0.464017 0.885826 0.526316 0.38749 0.921874 0.526316 0.309504 0.950898 0.526316 0.230959 0.972963 0.526316 0.1527 0.988273 0.526316 0.0754898 0.997147 0.526316 0 1 0.526316 1 0 0.578947 0.997147 0.0754898 0.578947 0.988273 0.1527 0.578947 0.972963 0.230959 0.578947 0.950898 0.309504 0.578947 0.921874 0.38749 0.578947 0.885826 0.464017 0.578947 0.842845 0.538157 0.578947 0.793182 0.608985 0.578947 0.737251 0.675619 0.578947 0.675619 0.737251 0.578947 0.608985 0.793182 0.578947 0.538157 0.842845 0.578947 0.464017 0.885826 0.578947 0.38749 0.921874 0.578947 0.309504 0.950898 0.578947 0.230959 0.972963 0.578947 0.1527 0.988273 0.578947 0.0754898 0.997147 0.578947 0 1 0.578947 1 0 0.631579 0.997147 0.0754898 0.631579 0.988273 0.1527 0.631579 0.972963 0.230959 0.631579 0.950898 0.309504 0.631579 0.921874 0.38749 0.631579 0.885826 0.464017 0.631579 0.842845 0.538157 0.631579 0.793182 0.608985 0.631579 0.737251 0.675619 0.631579 0.675619 0.737251 0.631579 0.608985 0.793182 0.631579 0.538157 0.842845 0.631579 0.464017 0.885826 0.631579 0.38749 0.921874 0.631579 0.309504 0.950898 0.631579 0.230959 0.972963 0.631579 0.1527 0.988273 0.631579 0.0754898 0.997147 0.631579 0 1 0.631579 1 0 0.684211 0.997147 0.0754898 0.684211 0.988273 0.1527 0.684211 0.972963 0.230959 0.684211 0.950898 0.309504 0.684211 0.921874 0.38749 0.684211 0.885826 0.464017 0.684211 0.842845 0.538157 0.684211 0.793182 0.608985 0.684211 0.737251 0.675619 0.684211 0.675619 0.737251 0.684211 0.608985 0.793182 0.684211 0.538157 0.842845 0.684211 0.464017 0.885826 0.684211 0.38749 0.921874 0.684211 0.309504 0.950898 0.684211 0.230959 0.972963 0.684211 0.1527 0.988273 0.684211 0.0754898 0.997147 0.684211 0 1 0.684211 1 0 0.736842 0.997147 0.0754898 0.736842 0.988273 0.1527 0.736842 0.972963 0.230959 0.736842 0.950898 0.309504 0.736842 0.921874 0.38749 0.736842 0.885826 0.464017 0.736842 0.842845 0.538157 0.736842 0.793182 0.608985 0.736842 0.737251 0.675619 0.736842 0.675619 0.737251 0.736842 0.608985 0.793182 0.736842 0.538157 0.842845 0.736842 0.464017 0.885826 0.736842 0.38749 0.921874 0.736842 0.309504 0.950898 0.736842 0.230959 0.972963 0.736842 0.1527 0.988273 0.736842 0.0754898 0.997147 0.736842 0 1 0.736842 1 0 0.789474 0.997147 0.0754898 0.789474 0.988273 0.1527 0.789474 0.972963 0.230959 0.789474 0.950898 0.309504 0.789474 0.921874 0.38749 0.789474 0.885826 0.464017 0.789474 0.842845 0.538157 0.789474 0.793182 0.608985 0.789474 0.737251 0.675619 0.789474 0.675619 0.737251 0.789474 0.608985 0.793182 0.789474 0.538157 0.842845 0.789474 0.464017 0.885826 0.789474 0.38749 0.921874 0.789474 0.309504 0.950898 0.789474 0.230959 0.972963 0.789474 0.1527 0.988273 0.789474 0.0754898 0.997147 0.789474 0 1 0.789474 1 0 0.842105 0.997147 0.0754898 0.842105 0.988273 0.1527 0.842105 0.972963 0.230959 0.842105 0.950898 0.309504 0.842105 0.921874 0.38749 0.842105 0.885826 0.464017 0.842105 0.842845 0.538157 0.842105 0.793182 0.608985 0.842105 0.737251 0.675619 0.842105 0.675619 0.737251 0.842105 0.608985 0.793182 0.842105 0.538157 0.842845 0.842105 0.464017 0.885826 0.842105 0.38749 0.921874 0.842105 0.309504 0.950898 0.842105 0.230959 0.972963 0.842105 0.1527 0.988273 0.842105 0.0754898 0.997147 0.842105 0 1 0.842105 1 0 0.894737 0.997147 0.0754898 0.894737 0.988273 0.1527 0.894737 0.972963 0.230959 0.894737 0.950898 0.309504 0.894737 0.921874 0.38749 0.894737 0.885826 0.464017 0.894737 0.842845 0.538157 0.894737 0.793182 0.608985 0.894737 0.737251 0.675619 0.894737 0.675619 0.737251 0.894737 0.608985 0.793182 0.894737 0.538157 0.842845 0.894737 0.464017 0.885826 0.894737 0.38749 0.921874 0.894737 0.309504 0.950898 0.894737 0.230959 0.972963 0.894737 0.1527 0.988273 0.894737 0.0754898 0.997147 0.894737 0 1 0.894737 1 0 0.947368 0.997147 0.0754898 0.947368 0.988273 0.1527 0.947368 0.972963 0.230959 0.947368 0.950898 0.309504 0.947368 0.921874 0.38749 0.947368 0.885826 0.464017 0.947368 0.842845 0.538157 0.947368 0.793182 0.608985 0.947368 0.737251 0.675619 0.947368 0.675619 0.737251 0.947368 0.608985 0.793182 0.947368 0.538157 0.842845 0.947368 0.464017 0.885826 0.947368 0.38749 0.921874 0.947368 0.309504 0.950898 0.947368 0.230959 0.972963 0.947368 0.1527 0.988273 0.947368 0.0754898 0.997147 0.947368 0 1 0.947368 1 0 1 0.997147 0.0754898 1 0.988273 0.1527 1 0.972963 0.230959 1 0.950898 0.309504 1 0.921874 0.38749 1 0.885826 0.464017 1 0.842845 0.538157 1 0.793182 0.608985 1 0.737251 0.675619 1 0.675619 0.737251 1 0.608985 0.793182 1 0.538157 0.842845 1 0.464017 0.885826 1 0.38749 0.921874 1 0.309504 0.950898 1 0.230959 0.972963 1 0.1527 0.988273 1 0.0754898 0.997147 1 0 1 1 
</DataArray>
</Points> 
</Piece> 
</StructuredGrid> 
</VTKFile> 
