<?xml version="1.0"?> 
<VTKFile type="StructuredGrid" version="0.1"> 
<StructuredGrid WholeExtent="0 20 0 20 0 0"> 
<Piece Extent="0 20 0 20 0 0"> 
<PointData>
<DataArray type="Float32" Name="u" format="ascii" NumberOfComponents="1"> 
0 0 -Inf -Inf -Inf -Inf -Inf -Inf -Inf -Inf -Inf -Inf -Inf -Inf -Inf -Inf -Inf -Inf -Inf 0.922012 0.922012 0 0 -Inf -Inf -Inf -Inf -Inf -Inf -Inf -Inf -Inf -Inf -Inf -Inf -Inf -Inf -Inf -Inf -Inf 0.922012 0.922012 0 0 -Inf -Inf -Inf -Inf -Inf -Inf -Inf -Inf -Inf -Inf -Inf -Inf -Inf -Inf -Inf -Inf -Inf 0.922012 0.922012 0 0 NaN NaN NaN NaN NaN NaN NaN NaN NaN NaN NaN NaN NaN NaN NaN NaN NaN 0.994117 0.994117 0 0 NaN NaN NaN NaN NaN NaN NaN NaN NaN NaN NaN NaN NaN NaN NaN NaN NaN 0.994117 0.994117 0 0 NaN NaN NaN NaN NaN NaN NaN NaN NaN NaN NaN NaN NaN NaN NaN NaN NaN 0.928054 0.928054 0 0 NaN NaN NaN NaN NaN NaN NaN NaN NaN NaN NaN NaN NaN NaN NaN NaN NaN 0.928054 0.928054 0 0 NaN NaN NaN NaN NaN NaN NaN NaN NaN NaN NaN NaN NaN NaN NaN NaN NaN 0.928054 0.928054 0 0 NaN NaN NaN NaN NaN NaN NaN NaN NaN NaN NaN NaN NaN NaN NaN NaN NaN 0.733006 0.733006 0 0 NaN NaN NaN NaN NaN NaN NaN NaN NaN NaN NaN NaN NaN NaN NaN NaN NaN 0.733006 0.733006 0 0 NaN NaN NaN NaN NaN NaN NaN NaN NaN NaN NaN NaN NaN NaN NaN NaN NaN 0.436081 0.436081 0 0 NaN NaN NaN NaN NaN NaN NaN NaN NaN NaN NaN NaN NaN NaN NaN NaN NaN 0.436081 0.436081 0 0 NaN NaN NaN NaN NaN NaN NaN NaN NaN NaN NaN NaN NaN NaN NaN NaN NaN 0.436081 0.436081 0 0 NaN NaN NaN NaN NaN NaN NaN NaN NaN NaN NaN NaN NaN NaN NaN NaN NaN 0.0785481 0.0785481 0 0 NaN NaN NaN NaN NaN NaN NaN NaN NaN NaN NaN NaN NaN NaN NaN NaN NaN 0.0785481 0.0785481 0 0 NaN NaN NaN NaN NaN NaN NaN NaN NaN NaN NaN NaN NaN NaN NaN NaN NaN -0.289902 -0.289902 0 0 NaN NaN NaN NaN NaN NaN NaN NaN NaN NaN NaN NaN NaN NaN NaN NaN NaN -0.289902 -0.289902 0 0 NaN NaN NaN NaN NaN NaN NaN NaN NaN NaN NaN NaN NaN NaN NaN NaN NaN -0.289902 -0.289902 0 0 -Inf -Inf -Inf -Inf -Inf -Inf Inf Inf -Inf -Inf -Inf -Inf -Inf -Inf -Inf -Inf -Inf -0.618061 -0.618061 0 0 -Inf -Inf -Inf -Inf -Inf -Inf Inf Inf -Inf -Inf -Inf -Inf -Inf -Inf -Inf -Inf -Inf -0.618061 -0.618061 0 0 -Inf -Inf -Inf -Inf -Inf -Inf Inf Inf -Inf -Inf -Inf -Inf -Inf -Inf -Inf -Inf -Inf -0.618061 -0.618061 </DataArray> 
</PointData> 
<Points> 
<DataArray type="Float32" NumberOfComponents="3"> 
-1 0 0 -0.997428 0.0716693 0 -0.989443 0.144919 0 -0.975684 0.219182 0 -0.955863 0.293812 0 -0.929788 0.368095 0 -0.897376 0.441267 0 -0.858665 0.512538 0 -0.813826 0.581109 0 -0.763163 0.646206 0 -0.707107 0.707107 0 -0.646206 0.763163 0 -0.581109 0.813826 0 -0.512538 0.858665 0 -0.441267 0.897376 0 -0.368095 0.929788 0 -0.293812 0.955863 0 -0.219182 0.975684 0 -0.144919 0.989443 0 -0.0716693 0.997428 0 0 1 0 -1.15 0 0 -1.15163 0.0885316 0 -1.14791 0.1794 0 -1.13845 0.271969 0 -1.12295 0.365505 0 -1.10118 0.459196 0 -1.07304 0.552164 0 -1.0385 0.64349 0 -0.997692 0.732238 0 -0.950856 0.817487 0 -0.898359 0.898359 0 -0.817487 0.950856 0 -0.732238 0.997692 0 -0.64349 1.0385 0 -0.552164 1.07304 0 -0.459196 1.10118 0 -0.365505 1.12295 0 -0.271969 1.13845 0 -0.1794 1.14791 0 -0.0885316 1.15163 0 0 1.15 0 -1.3 0 0 -1.3054 0.105346 0 -1.3055 0.213691 0 -1.29991 0.324332 0 -1.28832 0.436464 0 -1.27049 0.549186 0 -1.24626 0.661526 0 -1.21561 0.772459 0 -1.1786 0.880935 0 -1.13542 0.985912 0 -1.08639 1.08639 0 -0.985912 1.13542 0 -0.880935 1.1786 0 -0.772459 1.21561 0 -0.661526 1.24626 0 -0.549186 1.27049 0 -0.436464 1.28832 0 -0.324332 1.29991 0 -0.213691 1.3055 0 -0.105346 1.3054 0 0 1.3 0 -1.45 0 0 -1.45872 0.122112 0 -1.46221 0.247792 0 -1.46008 0.376278 0 -1.45201 0.5067 0 -1.43774 0.638087 0 -1.41711 0.769386 0 -1.39006 0.89949 0 -1.35662 1.02726 0 -1.31693 1.15155 0 -1.27127 1.27127 0 -1.15155 1.31693 0 -1.02726 1.35662 0 -0.89949 1.39006 0 -0.769386 1.41711 0 -0.638087 1.43774 0 -0.5067 1.45201 0 -0.376278 1.46008 0 -0.247792 1.46221 0 -0.122112 1.45872 0 0 1.45 0 -1.6 0 0 -1.61161 0.13883 0 -1.61807 0.281705 0 -1.61898 0.427812 0 -1.61404 0.576225 0 -1.60298 0.725917 0 -1.58563 0.875775 0 -1.56191 1.02463 0 -1.53181 1.17126 0 -1.49547 1.31447 0 -1.45308 1.45308 0 -1.31447 1.49547 0 -1.17126 1.53181 0 -1.02463 1.56191 0 -0.875775 1.58563 0 -0.725917 1.60298 0 -0.576225 1.61404 0 -0.427812 1.61898 0 -0.281705 1.61807 0 -0.13883 1.61161 0 0 1.6 0 -1.75 0 0 -1.76407 0.155501 0 -1.77307 0.315432 0 -1.77663 0.478937 0 -1.77444 0.645049 0 -1.76625 0.812696 0 -1.75187 0.980721 0 -1.73121 1.14791 0 -1.70426 1.313 0 -1.6711 1.47475 0 -1.63191 1.63191 0 -1.47475 1.6711 0 -1.313 1.70426 0 -1.14791 1.73121 0 -0.980721 1.75187 0 -0.812696 1.76625 0 -0.645049 1.77444 0 -0.478937 1.77663 0 -0.315432 1.77307 0 -0.155501 1.76407 0 0 1.75 0 -1.9 0 0 -1.91609 0.172125 0 -1.92722 0.348974 0 -1.93303 0.52966 0 -1.93323 0.713182 0 -1.92757 0.898442 0 -1.91587 1.08426 0 -1.89802 1.26938 0 -1.87401 1.45253 0 -1.84389 1.63243 0 -1.80781 1.80781 0 -1.63243 1.84389 0 -1.45253 1.87401 0 -1.26938 1.89802 0 -1.08426 1.91587 0 -0.898442 1.92757 0 -0.713182 1.93323 0 -0.52966 1.93303 0 -0.348974 1.92722 0 -0.172125 1.91609 0 0 1.9 0 -2.05 0 0 -2.06769 0.188702 0 -2.08053 0.382333 0 -2.0882 0.579984 0 -2.09043 0.780636 0 -2.08698 0.983174 0 -2.07767 1.1864 0 -2.0624 1.38908 0 -2.04114 1.58991 0 -2.01393 1.7876 0 -1.98087 1.98087 0 -1.7876 2.01393 0 -1.58991 2.04114 0 -1.38908 2.0624 0 -1.1864 2.07767 0 -0.983174 2.08698 0 -0.780636 2.09043 0 -0.579984 2.0882 0 -0.382333 2.08053 0 -0.188702 2.06769 0 0 2.05 0 -2.2 0 0 -2.21885 0.205231 0 -2.233 0.415511 0 -2.24216 0.629916 0 -2.24607 0.84742 0 -2.24451 1.06691 0 -2.23733 1.2872 0 -2.2244 1.50704 0 -2.20571 1.72517 0 -2.18126 1.9403 0 -2.15115 2.15115 0 -1.9403 2.18126 0 -1.72517 2.20571 0 -1.50704 2.2244 0 -1.2872 2.23733 0 -1.06691 2.24451 0 -0.84742 2.24607 0 -0.629916 2.24216 0 -0.415511 2.233 0 -0.205231 2.21885 0 0 2.2 0 -2.35 0 0 -2.36958 0.221714 0 -2.38465 0.448509 0 -2.39493 0.679458 0 -2.40018 0.913543 0 -2.40021 1.14967 0 -2.39487 1.38666 0 -2.38407 1.62331 0 -2.36776 1.85837 0 -2.34595 2.09059 0 -2.31872 2.31872 0 -2.09059 2.34595 0 -1.85837 2.36776 0 -1.62331 2.38407 0 -1.38666 2.39487 0 -1.14967 2.40021 0 -0.913543 2.40018 0 -0.679458 2.39493 0 -0.448509 2.38465 0 -0.221714 2.36958 0 0 2.35 0 -2.5 0 0 -2.5199 0.238151 0 -2.53548 0.481328 0 -2.5465 0.728615 0 -2.55277 0.979017 0 -2.5541 1.23146 0 -2.55036 1.48482 0 -2.54146 1.73792 0 -2.52737 1.98956 0 -2.50807 2.23853 0 -2.48364 2.48364 0 -2.23853 2.50807 0 -1.98956 2.52737 0 -1.73792 2.54146 0 -1.48482 2.55036 0 -1.23146 2.5541 0 -0.979017 2.55277 0 -0.728615 2.5465 0 -0.481328 2.53548 0 -0.238151 2.5199 0 0 2.5 0 -2.65 0 0 -2.66978 0.254541 0 -2.68549 0.513969 0 -2.69691 0.777393 0 -2.70386 1.04385 0 -2.70621 1.31231 0 -2.70382 1.5817 0 -2.69662 1.8509 0 -2.68457 2.11878 0 -2.66768 2.38418 0 -2.64597 2.64597 0 -2.38418 2.66768 0 -2.11878 2.68457 0 -1.8509 2.69662 0 -1.5817 2.70382 0 -1.31231 2.70621 0 -1.04385 2.70386 0 -0.777393 2.69691 0 -0.513969 2.68549 0 -0.254541 2.66978 0 0 2.65 0 -2.8 0 0 -2.81925 0.270885 0 -2.83469 0.546435 0 -2.84615 0.825796 0 -2.85349 1.10805 0 -2.85657 1.39223 0 -2.85529 1.67733 0 -2.8496 1.9623 0 -2.83944 2.24607 0 -2.82483 2.52759 0 -2.80578 2.80578 0 -2.52759 2.82483 0 -2.24607 2.83944 0 -1.9623 2.8496 0 -1.67733 2.85529 0 -1.39223 2.85657 0 -1.10805 2.85349 0 -0.825796 2.84615 0 -0.546435 2.83469 0 -0.270885 2.81925 0 0 2.8 0 -2.95 0 0 -2.96829 0.287183 0 -2.98309 0.578727 0 -2.99426 0.873827 0 -3.00166 1.17163 0 -3.00521 1.47124 0 -3.00482 1.77173 0 -3.00043 2.07213 0 -2.99202 2.37149 0 -2.97958 2.66881 0 -2.96312 2.96312 0 -2.66881 2.97958 0 -2.37149 2.99202 0 -2.07213 3.00043 0 -1.77173 3.00482 0 -1.47124 3.00521 0 -1.17163 3.00166 0 -0.873827 2.99426 0 -0.578727 2.98309 0 -0.287183 2.96829 0 0 2.95 0 -3.1 0 0 -3.11692 0.303435 0 -3.1307 0.610845 0 -3.14123 0.921491 0 -3.14841 1.2346 0 -3.15216 1.54935 0 -3.15243 1.86492 0 -3.14917 2.18044 0 -3.14236 2.49506 0 -3.13198 2.80788 0 -3.11805 3.11805 0 -2.80788 3.13198 0 -2.49506 3.14236 0 -2.18044 3.14917 0 -1.86492 3.15243 0 -1.54935 3.15216 0 -1.2346 3.14841 0 -0.921491 3.14123 0 -0.610845 3.1307 0 -0.303435 3.11692 0 0 3.1 0 -3.25 0 0 -3.26513 0.319642 0 -3.27752 0.642792 0 -3.28708 0.968792 0 -3.29375 1.29696 0 -3.29746 1.62658 0 -3.29818 1.95693 0 -3.29587 2.28726 0 -3.2905 2.61683 0 -3.28209 2.94487 0 -3.27063 3.27063 0 -2.94487 3.28209 0 -2.61683 3.2905 0 -2.28726 3.29587 0 -1.95693 3.29818 0 -1.62658 3.29746 0 -1.29696 3.29375 0 -0.968792 3.28708 0 -0.642792 3.27752 0 -0.319642 3.26513 0 0 3.25 0 -3.4 0 0 -3.41293 0.335804 0 -3.42355 0.674569 0 -3.43183 1.01574 0 -3.43769 1.35872 0 -3.44112 1.70294 0 -3.44208 2.04778 0 -3.44055 2.39262 0 -3.43651 2.73684 0 -3.42996 3.07981 0 -3.42091 3.42091 0 -3.07981 3.42996 0 -2.73684 3.43651 0 -2.39262 3.44055 0 -2.04778 3.44208 0 -1.70294 3.44112 0 -1.35872 3.43769 0 -1.01574 3.43183 0 -0.674569 3.42355 0 -0.335804 3.41293 0 0 3.4 0 -3.55 0 0 -3.56031 0.35192 0 -3.56881 0.706176 0 -3.57548 1.06232 0 -3.58028 1.4199 0 -3.58318 1.77845 0 -3.58418 2.13749 0 -3.58326 2.49654 0 -3.58042 2.85512 0 -3.57564 3.21275 0 -3.56893 3.56893 0 -3.21275 3.57564 0 -2.85512 3.58042 0 -2.49654 3.58326 0 -2.13749 3.58418 0 -1.77845 3.58318 0 -1.4199 3.58028 0 -1.06232 3.57548 0 -0.706176 3.56881 0 -0.35192 3.56031 0 0 3.55 0 -3.7 0 0 -3.70728 0.367991 0 -3.7133 0.737617 0 -3.71805 1.10856 0 -3.72151 1.4805 0 -3.72367 1.85312 0 -3.72452 2.22608 0 -3.72405 2.59906 0 -3.72227 2.97172 0 -3.71917 3.34373 0 -3.71476 3.71476 0 -3.34373 3.71917 0 -2.97172 3.72227 0 -2.59906 3.72405 0 -2.22608 3.72452 0 -1.85312 3.72367 0 -1.4805 3.72151 0 -1.10856 3.71805 0 -0.737617 3.7133 0 -0.367991 3.70728 0 0 3.7 0 -3.85 0 0 -3.85385 0.384018 0 -3.85703 0.768891 0 -3.85955 1.15445 0 -3.86141 1.54053 0 -3.8626 1.92697 0 -3.86311 2.31358 0 -3.86295 2.7002 0 -3.86212 3.08667 0 -3.86061 3.4728 0 -3.85843 3.85843 0 -3.4728 3.86061 0 -3.08667 3.86212 0 -2.7002 3.86295 0 -2.31358 3.86311 0 -1.92697 3.8626 0 -1.54053 3.86141 0 -1.15445 3.85955 0 -0.768891 3.85703 0 -0.384018 3.85385 0 0 3.85 0 -4 0 0 -4 0.4 0 -4 0.8 0 -4 1.2 0 -4 1.6 0 -4 2 0 -4 2.4 0 -4 2.8 0 -4 3.2 0 -4 3.6 0 -4 4 0 -3.6 4 0 -3.2 4 0 -2.8 4 0 -2.4 4 0 -2 4 0 -1.6 4 0 -1.2 4 0 -0.8 4 0 -0.4 4 0 0 4 0 
</DataArray>
</Points> 
</Piece> 
</StructuredGrid> 
</VTKFile> 
