<?xml version="1.0"?> 
<VTKFile type="StructuredGrid" version="0.1"> 
<StructuredGrid WholeExtent="0 19 0 19 0 0"> 
<Piece Extent="0 19 0 19 0 0"> 
<PointData>
<DataArray type="Float32" Name="u" format="ascii" NumberOfComponents="1"> 
0 0 0 0 0 0 0 0 0 0 0 0 0 0 0 0 0 0 0 0 0 -894359 -1.77189e+06 -2.63258e+06 -3.47342e+06 -4.28882e+06 -5.07868e+06 -5.79473e+06 -6.28013e+06 -6.52284e+06 -6.52284e+06 -6.28013e+06 -5.79473e+06 -5.07868e+06 -4.28882e+06 -3.47342e+06 -2.63258e+06 -1.77189e+06 -894359 0 0 -1.77189e+06 -3.54611e+06 -5.32267e+06 -7.07002e+06 -8.73011e+06 -1.03017e+07 -1.16993e+07 -1.26453e+07 -1.31183e+07 -1.31183e+07 -1.26453e+07 -1.16993e+07 -1.03017e+07 -8.73011e+06 -7.07002e+06 -5.32267e+06 -3.54611e+06 -1.77189e+06 0 0 -2.63258e+06 -5.32267e+06 -8.07026e+06 -1.07898e+07 -1.33239e+07 -1.5669e+07 -1.77138e+07 -1.90955e+07 -1.97864e+07 -1.97864e+07 -1.90955e+07 -1.77138e+07 -1.5669e+07 -1.33239e+07 -1.07898e+07 -8.07026e+06 -5.32267e+06 -2.63258e+06 0 0 -3.47342e+06 -7.07002e+06 -1.07898e+07 -1.45192e+07 -1.80491e+07 -2.13751e+07 -2.43209e+07 -2.63142e+07 -2.73108e+07 -2.73108e+07 -2.63142e+07 -2.43209e+07 -2.13751e+07 -1.80491e+07 -1.45192e+07 -1.07898e+07 -7.07002e+06 -3.47342e+06 0 0 -4.28882e+06 -8.73011e+06 -1.33239e+07 -1.80491e+07 -2.28672e+07 -2.77774e+07 -3.24092e+07 -3.55588e+07 -3.71336e+07 -3.71336e+07 -3.55588e+07 -3.24092e+07 -2.77774e+07 -2.28672e+07 -1.80491e+07 -1.33239e+07 -8.73011e+06 -4.28882e+06 0 0 -5.07868e+06 -1.03017e+07 -1.5669e+07 -2.13751e+07 -2.77774e+07 -3.48837e+07 -4.19978e+07 -4.68566e+07 -4.9286e+07 -4.9286e+07 -4.68566e+07 -4.19978e+07 -3.48837e+07 -2.77774e+07 -2.13751e+07 -1.5669e+07 -1.03017e+07 -5.07868e+06 0 0 -5.79473e+06 -1.16993e+07 -1.77138e+07 -2.43209e+07 -3.24092e+07 -4.19978e+07 -5.19928e+07 -5.88385e+07 -6.22613e+07 -6.22613e+07 -5.88385e+07 -5.19928e+07 -4.19978e+07 -3.24092e+07 -2.43209e+07 -1.77138e+07 -1.16993e+07 -5.79473e+06 0 0 -6.28013e+06 -1.26453e+07 -1.90955e+07 -2.63142e+07 -3.55588e+07 -4.68566e+07 -5.88385e+07 -6.70546e+07 -7.11627e+07 -7.11627e+07 -6.70546e+07 -5.88385e+07 -4.68566e+07 -3.55588e+07 -2.63142e+07 -1.90955e+07 -1.26453e+07 -6.28013e+06 0 0 -6.52284e+06 -1.31183e+07 -1.97864e+07 -2.73108e+07 -3.71336e+07 -4.9286e+07 -6.22613e+07 -7.11627e+07 -7.56134e+07 -7.56134e+07 -7.11627e+07 -6.22613e+07 -4.9286e+07 -3.71336e+07 -2.73108e+07 -1.97864e+07 -1.31183e+07 -6.52284e+06 0 0 -6.52284e+06 -1.31183e+07 -1.97864e+07 -2.73108e+07 -3.71336e+07 -4.9286e+07 -6.22613e+07 -7.11627e+07 -7.56134e+07 -7.56134e+07 -7.11627e+07 -6.22613e+07 -4.9286e+07 -3.71336e+07 -2.73108e+07 -1.97864e+07 -1.31183e+07 -6.52284e+06 0 0 -6.28013e+06 -1.26453e+07 -1.90955e+07 -2.63142e+07 -3.55588e+07 -4.68566e+07 -5.88385e+07 -6.70546e+07 -7.11627e+07 -7.11627e+07 -6.70546e+07 -5.88385e+07 -4.68566e+07 -3.55588e+07 -2.63142e+07 -1.90955e+07 -1.26453e+07 -6.28013e+06 0 0 -5.79473e+06 -1.16993e+07 -1.77138e+07 -2.43209e+07 -3.24092e+07 -4.19978e+07 -5.19928e+07 -5.88385e+07 -6.22613e+07 -6.22613e+07 -5.88385e+07 -5.19928e+07 -4.19978e+07 -3.24092e+07 -2.43209e+07 -1.77138e+07 -1.16993e+07 -5.79473e+06 0 0 -5.07868e+06 -1.03017e+07 -1.5669e+07 -2.13751e+07 -2.77774e+07 -3.48837e+07 -4.19978e+07 -4.68566e+07 -4.9286e+07 -4.9286e+07 -4.68566e+07 -4.19978e+07 -3.48837e+07 -2.77774e+07 -2.13751e+07 -1.5669e+07 -1.03017e+07 -5.07868e+06 0 0 -4.28882e+06 -8.73011e+06 -1.33239e+07 -1.80491e+07 -2.28672e+07 -2.77774e+07 -3.24092e+07 -3.55588e+07 -3.71336e+07 -3.71336e+07 -3.55588e+07 -3.24092e+07 -2.77774e+07 -2.28672e+07 -1.80491e+07 -1.33239e+07 -8.73011e+06 -4.28882e+06 0 0 -3.47342e+06 -7.07002e+06 -1.07898e+07 -1.45192e+07 -1.80491e+07 -2.13751e+07 -2.43209e+07 -2.63142e+07 -2.73108e+07 -2.73108e+07 -2.63142e+07 -2.43209e+07 -2.13751e+07 -1.80491e+07 -1.45192e+07 -1.07898e+07 -7.07002e+06 -3.47342e+06 0 0 -2.63258e+06 -5.32267e+06 -8.07026e+06 -1.07898e+07 -1.33239e+07 -1.5669e+07 -1.77138e+07 -1.90955e+07 -1.97864e+07 -1.97864e+07 -1.90955e+07 -1.77138e+07 -1.5669e+07 -1.33239e+07 -1.07898e+07 -8.07026e+06 -5.32267e+06 -2.63258e+06 0 0 -1.77189e+06 -3.54611e+06 -5.32267e+06 -7.07002e+06 -8.73011e+06 -1.03017e+07 -1.16993e+07 -1.26453e+07 -1.31183e+07 -1.31183e+07 -1.26453e+07 -1.16993e+07 -1.03017e+07 -8.73011e+06 -7.07002e+06 -5.32267e+06 -3.54611e+06 -1.77189e+06 0 0 -894359 -1.77189e+06 -2.63258e+06 -3.47342e+06 -4.28882e+06 -5.07868e+06 -5.79473e+06 -6.28013e+06 -6.52284e+06 -6.52284e+06 -6.28013e+06 -5.79473e+06 -5.07868e+06 -4.28882e+06 -3.47342e+06 -2.63258e+06 -1.77189e+06 -894359 0 0 0 0 0 0 0 0 0 0 0 0 0 0 0 0 0 0 0 0 0 </DataArray> 
</PointData> 
<Points> 
<DataArray type="Float32" NumberOfComponents="3"> 
0 0 0 0.0526316 0 0 0.105263 0 0 0.157895 0 0 0.210526 0 0 0.263158 0 0 0.315789 0 0 0.368421 0 0 0.421053 0 0 0.473684 0 0 0.526316 0 0 0.578947 0 0 0.631579 0 0 0.684211 0 0 0.736842 0 0 0.789474 0 0 0.842105 0 0 0.894737 0 0 0.947368 0 0 1 0 0 0 0.0526316 0 0.0526316 0.0526316 0 0.105263 0.0526316 0 0.157895 0.0526316 0 0.210526 0.0526316 0 0.263158 0.0526316 0 0.315789 0.0526316 0 0.368421 0.0526316 0 0.421053 0.0526316 0 0.473684 0.0526316 0 0.526316 0.0526316 0 0.578947 0.0526316 0 0.631579 0.0526316 0 0.684211 0.0526316 0 0.736842 0.0526316 0 0.789474 0.0526316 0 0.842105 0.0526316 0 0.894737 0.0526316 0 0.947368 0.0526316 0 1 0.0526316 0 0 0.105263 0 0.0526316 0.105263 0 0.105263 0.105263 0 0.157895 0.105263 0 0.210526 0.105263 0 0.263158 0.105263 0 0.315789 0.105263 0 0.368421 0.105263 0 0.421053 0.105263 0 0.473684 0.105263 0 0.526316 0.105263 0 0.578947 0.105263 0 0.631579 0.105263 0 0.684211 0.105263 0 0.736842 0.105263 0 0.789474 0.105263 0 0.842105 0.105263 0 0.894737 0.105263 0 0.947368 0.105263 0 1 0.105263 0 0 0.157895 0 0.0526316 0.157895 0 0.105263 0.157895 0 0.157895 0.157895 0 0.210526 0.157895 0 0.263158 0.157895 0 0.315789 0.157895 0 0.368421 0.157895 0 0.421053 0.157895 0 0.473684 0.157895 0 0.526316 0.157895 0 0.578947 0.157895 0 0.631579 0.157895 0 0.684211 0.157895 0 0.736842 0.157895 0 0.789474 0.157895 0 0.842105 0.157895 0 0.894737 0.157895 0 0.947368 0.157895 0 1 0.157895 0 0 0.210526 0 0.0526316 0.210526 0 0.105263 0.210526 0 0.157895 0.210526 0 0.210526 0.210526 0 0.263158 0.210526 0 0.315789 0.210526 0 0.368421 0.210526 0 0.421053 0.210526 0 0.473684 0.210526 0 0.526316 0.210526 0 0.578947 0.210526 0 0.631579 0.210526 0 0.684211 0.210526 0 0.736842 0.210526 0 0.789474 0.210526 0 0.842105 0.210526 0 0.894737 0.210526 0 0.947368 0.210526 0 1 0.210526 0 0 0.263158 0 0.0526316 0.263158 0 0.105263 0.263158 0 0.157895 0.263158 0 0.210526 0.263158 0 0.263158 0.263158 0 0.315789 0.263158 0 0.368421 0.263158 0 0.421053 0.263158 0 0.473684 0.263158 0 0.526316 0.263158 0 0.578947 0.263158 0 0.631579 0.263158 0 0.684211 0.263158 0 0.736842 0.263158 0 0.789474 0.263158 0 0.842105 0.263158 0 0.894737 0.263158 0 0.947368 0.263158 0 1 0.263158 0 0 0.315789 0 0.0526316 0.315789 0 0.105263 0.315789 0 0.157895 0.315789 0 0.210526 0.315789 0 0.263158 0.315789 0 0.315789 0.315789 0 0.368421 0.315789 0 0.421053 0.315789 0 0.473684 0.315789 0 0.526316 0.315789 0 0.578947 0.315789 0 0.631579 0.315789 0 0.684211 0.315789 0 0.736842 0.315789 0 0.789474 0.315789 0 0.842105 0.315789 0 0.894737 0.315789 0 0.947368 0.315789 0 1 0.315789 0 0 0.368421 0 0.0526316 0.368421 0 0.105263 0.368421 0 0.157895 0.368421 0 0.210526 0.368421 0 0.263158 0.368421 0 0.315789 0.368421 0 0.368421 0.368421 0 0.421053 0.368421 0 0.473684 0.368421 0 0.526316 0.368421 0 0.578947 0.368421 0 0.631579 0.368421 0 0.684211 0.368421 0 0.736842 0.368421 0 0.789474 0.368421 0 0.842105 0.368421 0 0.894737 0.368421 0 0.947368 0.368421 0 1 0.368421 0 0 0.421053 0 0.0526316 0.421053 0 0.105263 0.421053 0 0.157895 0.421053 0 0.210526 0.421053 0 0.263158 0.421053 0 0.315789 0.421053 0 0.368421 0.421053 0 0.421053 0.421053 0 0.473684 0.421053 0 0.526316 0.421053 0 0.578947 0.421053 0 0.631579 0.421053 0 0.684211 0.421053 0 0.736842 0.421053 0 0.789474 0.421053 0 0.842105 0.421053 0 0.894737 0.421053 0 0.947368 0.421053 0 1 0.421053 0 0 0.473684 0 0.0526316 0.473684 0 0.105263 0.473684 0 0.157895 0.473684 0 0.210526 0.473684 0 0.263158 0.473684 0 0.315789 0.473684 0 0.368421 0.473684 0 0.421053 0.473684 0 0.473684 0.473684 0 0.526316 0.473684 0 0.578947 0.473684 0 0.631579 0.473684 0 0.684211 0.473684 0 0.736842 0.473684 0 0.789474 0.473684 0 0.842105 0.473684 0 0.894737 0.473684 0 0.947368 0.473684 0 1 0.473684 0 0 0.526316 0 0.0526316 0.526316 0 0.105263 0.526316 0 0.157895 0.526316 0 0.210526 0.526316 0 0.263158 0.526316 0 0.315789 0.526316 0 0.368421 0.526316 0 0.421053 0.526316 0 0.473684 0.526316 0 0.526316 0.526316 0 0.578947 0.526316 0 0.631579 0.526316 0 0.684211 0.526316 0 0.736842 0.526316 0 0.789474 0.526316 0 0.842105 0.526316 0 0.894737 0.526316 0 0.947368 0.526316 0 1 0.526316 0 0 0.578947 0 0.0526316 0.578947 0 0.105263 0.578947 0 0.157895 0.578947 0 0.210526 0.578947 0 0.263158 0.578947 0 0.315789 0.578947 0 0.368421 0.578947 0 0.421053 0.578947 0 0.473684 0.578947 0 0.526316 0.578947 0 0.578947 0.578947 0 0.631579 0.578947 0 0.684211 0.578947 0 0.736842 0.578947 0 0.789474 0.578947 0 0.842105 0.578947 0 0.894737 0.578947 0 0.947368 0.578947 0 1 0.578947 0 0 0.631579 0 0.0526316 0.631579 0 0.105263 0.631579 0 0.157895 0.631579 0 0.210526 0.631579 0 0.263158 0.631579 0 0.315789 0.631579 0 0.368421 0.631579 0 0.421053 0.631579 0 0.473684 0.631579 0 0.526316 0.631579 0 0.578947 0.631579 0 0.631579 0.631579 0 0.684211 0.631579 0 0.736842 0.631579 0 0.789474 0.631579 0 0.842105 0.631579 0 0.894737 0.631579 0 0.947368 0.631579 0 1 0.631579 0 0 0.684211 0 0.0526316 0.684211 0 0.105263 0.684211 0 0.157895 0.684211 0 0.210526 0.684211 0 0.263158 0.684211 0 0.315789 0.684211 0 0.368421 0.684211 0 0.421053 0.684211 0 0.473684 0.684211 0 0.526316 0.684211 0 0.578947 0.684211 0 0.631579 0.684211 0 0.684211 0.684211 0 0.736842 0.684211 0 0.789474 0.684211 0 0.842105 0.684211 0 0.894737 0.684211 0 0.947368 0.684211 0 1 0.684211 0 0 0.736842 0 0.0526316 0.736842 0 0.105263 0.736842 0 0.157895 0.736842 0 0.210526 0.736842 0 0.263158 0.736842 0 0.315789 0.736842 0 0.368421 0.736842 0 0.421053 0.736842 0 0.473684 0.736842 0 0.526316 0.736842 0 0.578947 0.736842 0 0.631579 0.736842 0 0.684211 0.736842 0 0.736842 0.736842 0 0.789474 0.736842 0 0.842105 0.736842 0 0.894737 0.736842 0 0.947368 0.736842 0 1 0.736842 0 0 0.789474 0 0.0526316 0.789474 0 0.105263 0.789474 0 0.157895 0.789474 0 0.210526 0.789474 0 0.263158 0.789474 0 0.315789 0.789474 0 0.368421 0.789474 0 0.421053 0.789474 0 0.473684 0.789474 0 0.526316 0.789474 0 0.578947 0.789474 0 0.631579 0.789474 0 0.684211 0.789474 0 0.736842 0.789474 0 0.789474 0.789474 0 0.842105 0.789474 0 0.894737 0.789474 0 0.947368 0.789474 0 1 0.789474 0 0 0.842105 0 0.0526316 0.842105 0 0.105263 0.842105 0 0.157895 0.842105 0 0.210526 0.842105 0 0.263158 0.842105 0 0.315789 0.842105 0 0.368421 0.842105 0 0.421053 0.842105 0 0.473684 0.842105 0 0.526316 0.842105 0 0.578947 0.842105 0 0.631579 0.842105 0 0.684211 0.842105 0 0.736842 0.842105 0 0.789474 0.842105 0 0.842105 0.842105 0 0.894737 0.842105 0 0.947368 0.842105 0 1 0.842105 0 0 0.894737 0 0.0526316 0.894737 0 0.105263 0.894737 0 0.157895 0.894737 0 0.210526 0.894737 0 0.263158 0.894737 0 0.315789 0.894737 0 0.368421 0.894737 0 0.421053 0.894737 0 0.473684 0.894737 0 0.526316 0.894737 0 0.578947 0.894737 0 0.631579 0.894737 0 0.684211 0.894737 0 0.736842 0.894737 0 0.789474 0.894737 0 0.842105 0.894737 0 0.894737 0.894737 0 0.947368 0.894737 0 1 0.894737 0 0 0.947368 0 0.0526316 0.947368 0 0.105263 0.947368 0 0.157895 0.947368 0 0.210526 0.947368 0 0.263158 0.947368 0 0.315789 0.947368 0 0.368421 0.947368 0 0.421053 0.947368 0 0.473684 0.947368 0 0.526316 0.947368 0 0.578947 0.947368 0 0.631579 0.947368 0 0.684211 0.947368 0 0.736842 0.947368 0 0.789474 0.947368 0 0.842105 0.947368 0 0.894737 0.947368 0 0.947368 0.947368 0 1 0.947368 0 0 1 0 0.0526316 1 0 0.105263 1 0 0.157895 1 0 0.210526 1 0 0.263158 1 0 0.315789 1 0 0.368421 1 0 0.421053 1 0 0.473684 1 0 0.526316 1 0 0.578947 1 0 0.631579 1 0 0.684211 1 0 0.736842 1 0 0.789474 1 0 0.842105 1 0 0.894737 1 0 0.947368 1 0 1 1 0 
</DataArray>
</Points> 
</Piece> 
</StructuredGrid> 
</VTKFile> 
