<?xml version="1.0"?> 
<VTKFile type="StructuredGrid" version="0.1"> 
<StructuredGrid WholeExtent="0 14 0 14 0 14"> 
<Piece Extent="0 14 0 14 0 14"> 
<PointData>
<DataArray type="Float32" Name="velocity" format="ascii" NumberOfComponents="3"> 
-0.133708 0 0 -0.17196 0 0 -0.16642 0 0 -0.166177 0 0 -0.168673 0 0 -0.166321 0 0 -0.166975 0 0 -0.167733 0 0 -0.166975 0 0 -0.166321 0 0 -0.168673 0 0 -0.166177 0 0 -0.16642 0 0 -0.17196 0 0 -0.133708 0 0 0.0194719 0 0 0.0250426 0 0 0.0242358 0 0 0.0242004 0 0 0.024564 0 0 0.0242215 0 0 0.0243167 0 0 0.0244271 0 0 0.0243167 0 0 0.0242215 0 0 0.024564 0 0 0.0242004 0 0 0.0242358 0 0 0.0250426 0 0 0.0194719 0 0 -0.00313215 0 0 -0.00402821 0 0 -0.00389843 0 0 -0.00389274 0 0 -0.00395123 0 0 -0.00389613 0 0 -0.00391145 0 0 -0.00392921 0 0 -0.00391145 0 0 -0.00389613 0 0 -0.00395123 0 0 -0.00389274 0 0 -0.00389843 0 0 -0.00402821 0 0 -0.00313215 0 0 -0.00308329 0 0 -0.00396537 0 0 -0.00383762 0 0 -0.00383202 0 0 -0.00388959 0 0 -0.00383535 0 0 -0.00385043 0 0 -0.00386791 0 0 -0.00385043 0 0 -0.00383535 0 0 -0.00388959 0 0 -0.00383202 0 0 -0.00383762 0 0 -0.00396537 0 0 -0.00308329 0 0 0.00589099 0 0 0.00757631 0 0 0.00733222 0 0 0.00732152 0 0 0.00743152 0 0 0.00732789 0 0 0.00735671 0 0 0.0073901 0 0 0.00735671 0 0 0.00732789 0 0 0.00743152 0 0 0.00732152 0 0 0.00733222 0 0 0.00757631 0 0 0.00589099 0 0 -0.00408741 0 0 -0.00525676 0 0 -0.0050874 0 0 -0.00507998 0 0 -0.0051563 0 0 -0.0050844 0 0 -0.00510439 0 0 -0.00512756 0 0 -0.00510439 0 0 -0.0050844 0 0 -0.0051563 0 0 -0.00507998 0 0 -0.0050874 0 0 -0.00525676 0 0 -0.00408741 0 0 0.00199058 0 0 0.00256005 0 0 0.00247758 0 0 0.00247396 0 0 0.00251113 0 0 0.00247611 0 0 0.00248585 0 0 0.00249713 0 0 0.00248585 0 0 0.00247611 0 0 0.00251113 0 0 0.00247396 0 0 0.00247758 0 0 0.00256005 0 0 0.00199058 0 0 -9.32414e-18 0 0 -7.30142e-18 0 0 -5.71917e-18 0 0 -2.34665e-18 0 0 -8.28059e-18 0 0 -1.37694e-17 0 0 -1.95686e-18 0 0 -5.16351e-18 0 0 -1.13299e-17 0 0 -2.58091e-18 0 0 -6.49166e-18 0 0 -9.75782e-18 0 0 -1.69068e-18 0 0 2.87314e-18 0 0 -1.71304e-17 0 0 -0.00199058 0 0 -0.00256005 0 0 -0.00247758 0 0 -0.00247396 0 0 -0.00251113 0 0 -0.00247611 0 0 -0.00248585 0 0 -0.00249713 0 0 -0.00248585 0 0 -0.00247611 0 0 -0.00251113 0 0 -0.00247396 0 0 -0.00247758 0 0 -0.00256005 0 0 -0.00199058 0 0 0.00408741 0 0 0.00525676 0 0 0.0050874 0 0 0.00507998 0 0 0.0051563 0 0 0.0050844 0 0 0.00510439 0 0 0.00512756 0 0 0.00510439 0 0 0.0050844 0 0 0.0051563 0 0 0.00507998 0 0 0.0050874 0 0 0.00525676 0 0 0.00408741 0 0 -0.00589099 0 0 -0.00757631 0 0 -0.00733222 0 0 -0.00732152 0 0 -0.00743152 0 0 -0.00732789 0 0 -0.00735671 0 0 -0.0073901 0 0 -0.00735671 0 0 -0.00732789 0 0 -0.00743152 0 0 -0.00732152 0 0 -0.00733222 0 0 -0.00757631 0 0 -0.00589099 0 0 0.00308329 0 0 0.00396537 0 0 0.00383762 0 0 0.00383202 0 0 0.00388959 0 0 0.00383535 0 0 0.00385043 0 0 0.00386791 0 0 0.00385043 0 0 0.00383535 0 0 0.00388959 0 0 0.00383202 0 0 0.00383762 0 0 0.00396537 0 0 0.00308329 0 0 0.00313215 0 0 0.00402821 0 0 0.00389843 0 0 0.00389274 0 0 0.00395123 0 0 0.00389613 0 0 0.00391145 0 0 0.00392921 0 0 0.00391145 0 0 0.00389613 0 0 0.00395123 0 0 0.00389274 0 0 0.00389843 0 0 0.00402821 0 0 0.00313215 0 0 -0.0194719 0 0 -0.0250426 0 0 -0.0242358 0 0 -0.0242004 0 0 -0.024564 0 0 -0.0242215 0 0 -0.0243167 0 0 -0.0244271 0 0 -0.0243167 0 0 -0.0242215 0 0 -0.024564 0 0 -0.0242004 0 0 -0.0242358 0 0 -0.0250426 0 0 -0.0194719 0 0 0.133708 0 0 0.17196 0 0 0.16642 0 0 0.166177 0 0 0.168673 0 0 0.166321 0 0 0.166975 0 0 0.167733 0 0 0.166975 0 0 0.166321 0 0 0.168673 0 0 0.166177 0 0 0.16642 0 0 0.17196 0 0 0.133708 0 0 -0.439491 0 0 -1.21949 0 0 -1.10652 0 0 -1.10156 0 0 -1.15248 0 0 -1.10451 0 0 -1.11785 0 0 -1.13331 0 0 -1.11785 0 0 -1.10451 0 0 -1.15248 0 0 -1.10156 0 0 -1.10652 0 0 -1.21949 0 0 -0.439491 0 0 0.0640033 0 0 0.241631 0.166402 0.0274806 0.130178 0.04588 -0.00590692 0.056305 0.00529601 -0.00838287 0.0457412 0.0226398 0.00330235 0.0347944 0.0152888 0.00434896 0.0356379 0.0126871 0.00395244 0.0373065 -9.38216e-18 2.87456e-17 0.0356379 -0.0126871 -0.00395244 0.0347944 -0.0152888 -0.00434896 0.0457412 -0.0226398 -0.00330235 0.056305 -0.00529601 0.00838287 0.130178 -0.04588 0.00590692 0.241631 -0.166402 -0.0274806 0.0640033 0 0 -0.0102952 0 0 -0.028843 0.086498 -0.0124271 0.0156615 0.0616221 0.0042518 0.0393193 0.0388102 0.0046616 0.0332924 0.0303702 -0.00159161 0.0223823 0.0184452 -0.002103 0.0147798 0.0100621 -0.00199381 0.0123892 1.81977e-17 -1.1833e-17 0.0147798 -0.0100621 0.00199381 0.0223823 -0.0184452 0.002103 0.0332924 -0.0303702 0.00159161 0.0393193 -0.0388102 -0.0046616 0.0156615 -0.0616221 -0.0042518 -0.028843 -0.086498 0.0124271 -0.0102952 0 0 -0.0101346 0 0 -0.0590968 0.032564 -0.0106969 -0.0135006 0.0586094 0.00269134 0.0195909 0.0518264 0.00360354 0.0228716 0.0329584 -0.00127814 0.0201748 0.0186273 -0.00188953 0.0162883 0.00802351 -0.00169355 0.0148609 -4.55719e-18 -1.1932e-17 0.0162883 -0.00802351 0.00169355 0.0201748 -0.0186273 0.00188953 0.0228716 -0.0329584 0.00127814 0.0195909 -0.0518264 -0.00360354 -0.0135006 -0.0586094 -0.00269134 -0.0590968 -0.032564 0.0106969 -0.0101346 0 0 0.0193634 0 0 0.0570856 0.0272572 0.0050088 0.0473739 0.0437513 -0.00150616 0.0473957 0.0409201 -0.0017575 0.0547585 0.0290046 0.000609451 0.0573794 0.0173039 0.000777944 0.0603325 0.00804986 0.000740869 0.0616717 -7.33573e-18 7.19383e-18 0.0603325 -0.00804986 -0.000740869 0.0573794 -0.0173039 -0.000777944 0.0547585 -0.0290046 -0.000609451 0.0473957 -0.0409201 0.0017575 0.0473739 -0.0437513 0.00150616 0.0570856 -0.0272572 -0.0050088 0.0193634 0 0 -0.0134351 0 0 -0.00537303 0.0184584 0.0051844 -0.00723662 0.026388 -0.00107326 -0.0120736 0.0259683 -0.00175252 -0.00952552 0.0212341 0.000533046 -0.00271983 0.0146257 0.000993533 0.000789273 0.00741504 0.000849936 0.00162415 7.47252e-18 7.2415e-18 0.000789273 -0.00741504 -0.000849936 -0.00271983 -0.0146257 -0.000993533 -0.00952552 -0.0212341 -0.000533046 -0.0120736 -0.0259683 0.00175252 -0.00723662 -0.026388 0.00107326 -0.00537303 -0.0184584 -0.0051844 -0.0134351 0 0 0.00654293 0 0 0.0291575 0.017132 0.00500208 0.0175323 0.0171172 -0.00125376 0.0103247 0.017162 -0.00170173 0.0127072 0.0168454 0.000576884 0.0159338 0.0128749 0.000878943 0.0187367 0.00707909 0.000792482 0.0197407 -1.95208e-17 -6.84085e-18 0.0187367 -0.00707909 -0.000792482 0.0159338 -0.0128749 -0.000878943 0.0127072 -0.0168454 -0.000576884 0.0103247 -0.017162 0.00170173 0.0175323 -0.0171172 0.00125376 0.0291575 -0.017132 -0.00500208 0.00654293 0 0 -1.73472e-18 0 0 -2.1484e-17 0.0175837 -2.5668e-17 5.19146e-18 0.0145413 -1.38156e-17 1.66328e-17 0.0145985 1.55572e-17 8.07053e-18 0.0156659 1.27729e-17 -1.24717e-17 0.0123509 -3.95091e-18 -3.72556e-17 0.00700599 5.00943e-18 2.78144e-17 -1.16298e-17 2.56032e-18 4.86265e-17 -0.00700599 -3.37352e-18 -3.52197e-17 -0.0123509 5.06193e-18 1.70118e-17 -0.0156659 9.7449e-18 3.12115e-17 -0.0145985 9.13102e-18 -4.48504e-17 -0.0145413 -6.37519e-18 1.18686e-17 -0.0175837 -2.81418e-17 6.15285e-18 0 0 -0.00654293 0 0 -0.0291575 0.017132 -0.00500208 -0.0175323 0.0171172 0.00125376 -0.0103247 0.017162 0.00170173 -0.0127072 0.0168454 -0.000576884 -0.0159338 0.0128749 -0.000878943 -0.0187367 0.00707909 -0.000792482 -0.0197407 -5.0822e-20 2.17306e-18 -0.0187367 -0.00707909 0.000792482 -0.0159338 -0.0128749 0.000878943 -0.0127072 -0.0168454 0.000576884 -0.0103247 -0.017162 -0.00170173 -0.0175323 -0.0171172 -0.00125376 -0.0291575 -0.017132 0.00500208 -0.00654293 0 0 0.0134351 0 0 0.00537303 0.0184584 -0.0051844 0.00723662 0.026388 0.00107326 0.0120736 0.0259683 0.00175252 0.00952552 0.0212341 -0.000533046 0.00271983 0.0146257 -0.000993533 -0.000789273 0.00741504 -0.000849936 -0.00162415 -1.93463e-17 -1.95934e-17 -0.000789273 -0.00741504 0.000849936 0.00271983 -0.0146257 0.000993533 0.00952552 -0.0212341 0.000533046 0.0120736 -0.0259683 -0.00175252 0.00723662 -0.026388 -0.00107326 0.00537303 -0.0184584 0.0051844 0.0134351 0 0 -0.0193634 0 0 -0.0570856 0.0272572 -0.0050088 -0.0473739 0.0437513 0.00150616 -0.0473957 0.0409201 0.0017575 -0.0547585 0.0290046 -0.000609451 -0.0573794 0.0173039 -0.000777944 -0.0603325 0.00804986 -0.000740869 -0.0616717 1.04185e-18 1.64587e-17 -0.0603325 -0.00804986 0.000740869 -0.0573794 -0.0173039 0.000777944 -0.0547585 -0.0290046 0.000609451 -0.0473957 -0.0409201 -0.0017575 -0.0473739 -0.0437513 -0.00150616 -0.0570856 -0.0272572 0.0050088 -0.0193634 0 0 0.0101346 0 0 0.0590968 0.032564 0.0106969 0.0135006 0.0586094 -0.00269134 -0.0195909 0.0518264 -0.00360354 -0.0228716 0.0329584 0.00127814 -0.0201748 0.0186273 0.00188953 -0.0162883 0.00802351 0.00169355 -0.0148609 1.50975e-17 1.68365e-17 -0.0162883 -0.00802351 -0.00169355 -0.0201748 -0.0186273 -0.00188953 -0.0228716 -0.0329584 -0.00127814 -0.0195909 -0.0518264 0.00360354 0.0135006 -0.0586094 0.00269134 0.0590968 -0.032564 -0.0106969 0.0101346 0 0 0.0102952 0 0 0.028843 0.086498 0.0124271 -0.0156615 0.0616221 -0.0042518 -0.0393193 0.0388102 -0.0046616 -0.0332924 0.0303702 0.00159161 -0.0223823 0.0184452 0.002103 -0.0147798 0.0100621 0.00199381 -0.0123892 1.66662e-17 -2.20614e-17 -0.0147798 -0.0100621 -0.00199381 -0.0223823 -0.0184452 -0.002103 -0.0332924 -0.0303702 -0.00159161 -0.0393193 -0.0388102 0.0046616 -0.0156615 -0.0616221 0.0042518 0.028843 -0.086498 -0.0124271 0.0102952 0 0 -0.0640033 0 0 -0.241631 0.166402 -0.0274806 -0.130178 0.04588 0.00590692 -0.056305 0.00529601 0.00838287 -0.0457412 0.0226398 -0.00330235 -0.0347944 0.0152888 -0.00434896 -0.0356379 0.0126871 -0.00395244 -0.0373065 4.15046e-17 8.63296e-18 -0.0356379 -0.0126871 0.00395244 -0.0347944 -0.0152888 0.00434896 -0.0457412 -0.0226398 0.00330235 -0.056305 -0.00529601 -0.00838287 -0.130178 -0.04588 -0.00590692 -0.241631 -0.166402 0.0274806 -0.0640033 0 0 0.439491 0 0 1.21949 0 0 1.10652 0 0 1.10156 0 0 1.15248 0 0 1.10451 0 0 1.11785 0 0 1.13331 0 0 1.11785 0 0 1.10451 0 0 1.15248 0 0 1.10156 0 0 1.10652 0 0 1.21949 0 0 0.439491 0 0 -0.395204 0 0 -1.06777 0 0 -0.970362 0 0 -0.966091 0 0 -1.00999 0 0 -0.968634 0 0 -0.980133 0 0 -0.993462 0 0 -0.980133 0 0 -0.968634 0 0 -1.00999 0 0 -0.966091 0 0 -0.970362 0 0 -1.06777 0 0 -0.395204 0 0 0.0575538 0 0 0.238887 0.255194 0.0402556 0.0875581 0.0898286 -0.00328365 -0.0277092 0.0193489 -0.00939188 -0.0561758 0.0366586 0.00440416 -0.0711198 0.0269035 0.00585049 -0.07308 0.0196889 0.00508715 -0.072836 -9.78831e-18 1.06303e-17 -0.07308 -0.0196889 -0.00508715 -0.0711198 -0.0269035 -0.00585049 -0.0561758 -0.0366586 -0.00440416 -0.0277092 -0.0193489 0.00939188 0.0875581 -0.0898286 0.00328365 0.238887 -0.255194 -0.0402556 0.0575538 0 0 -0.00925778 0 0 -0.0147899 0.145064 -0.0154217 0.0478161 0.112401 0.0044763 0.0823337 0.072504 0.00567348 0.074075 0.054633 -0.00171468 0.0553432 0.0340987 -0.00270334 0.0428632 0.0179343 -0.00243136 0.0391161 1.28749e-17 1.65752e-17 0.0428632 -0.0179343 0.00243136 0.0553432 -0.0340987 0.00270334 0.074075 -0.054633 0.00171468 0.0823337 -0.072504 -0.00567348 0.0478161 -0.112401 -0.0044763 -0.0147899 -0.145064 0.0154217 -0.00925778 0 0 -0.00911336 0 0 -0.0655755 0.0625927 -0.0143404 0.00183994 0.103402 0.00236797 0.0557 0.0922203 0.00437219 0.0645453 0.0610216 -0.00151629 0.0597105 0.0349892 -0.00258785 0.0537318 0.0155456 -0.00219396 0.0517676 -4.62017e-19 -1.20267e-17 0.0537318 -0.0155456 0.00219396 0.0597105 -0.0349892 0.00258785 0.0645453 -0.0610216 0.00151629 0.0557 -0.0922203 -0.00437219 0.00183994 -0.103402 -0.00236797 -0.0655755 -0.0625927 0.0143404 -0.00911336 0 0 0.0174122 0 0 0.0498861 0.0494026 0.00703491 0.042829 0.0777157 -0.0013288 0.0464668 0.0736577 -0.00209585 0.0574995 0.0534017 0.000735502 0.0636241 0.032245 0.000993052 0.0680567 0.0151429 0.000917733 0.0697439 2.68001e-18 -7.12201e-18 0.0680567 -0.0151429 -0.000917733 0.0636241 -0.032245 -0.000993052 0.0574995 -0.0534017 -0.000735502 0.0464668 -0.0736577 0.00209585 0.042829 -0.0777157 0.0013288 0.0498861 -0.0494026 -0.00703491 0.0174122 0 0 -0.0120813 0 0 0.0169174 0.0334444 0.00744772 0.0145723 0.0480047 -0.000960207 0.00750731 0.0475698 -0.00232766 0.0126239 0.039122 0.00063856 0.0231508 0.0270298 0.00143247 0.0295116 0.013717 0.00117891 0.0313084 7.95533e-18 1.44826e-17 0.0295116 -0.013717 -0.00117891 0.0231508 -0.0270298 -0.00143247 0.0126239 -0.039122 -0.00063856 0.00750731 -0.0475698 0.00232766 0.0145723 -0.0480047 0.000960207 0.0169174 -0.0334444 -0.00744772 -0.0120813 0 0 0.00588361 0 0 0.0318907 0.0291468 0.00697413 0.0176499 0.0318636 -0.0010795 0.00728648 0.0320837 -0.00210253 0.0103148 0.030701 0.00069175 0.0162267 0.0235347 0.00120459 0.0208003 0.0128085 0.00103997 0.0223139 -3.74466e-17 -6.75086e-18 0.0208003 -0.0128085 -0.00103997 0.0162267 -0.0235347 -0.00120459 0.0103148 -0.030701 -0.00069175 0.00728648 -0.0320837 0.00210253 0.0176499 -0.0318636 0.0010795 0.0318907 -0.0291468 -0.00697413 0.00588361 0 0 -8.67362e-19 0 0 -3.74312e-17 0.0289002 -4.96523e-17 1.03067e-17 0.0273085 -1.96685e-17 1.9872e-17 0.0275668 1.54956e-17 -7.86047e-18 0.0283437 1.24387e-17 -1.08691e-17 0.022466 -1.10051e-18 2.41798e-17 0.0125518 6.0586e-18 1.95529e-17 -2.69018e-17 3.48766e-18 -1.73472e-18 -0.0125518 -6.69156e-19 9.67629e-18 -0.022466 7.12913e-18 3.98173e-17 -0.0283437 6.29345e-18 1.78893e-17 -0.0275668 6.26127e-18 -4.39508e-17 -0.0273085 3.80487e-18 -2.47469e-17 -0.0289002 -1.00289e-17 1.51788e-18 0 0 -0.00588361 0 0 -0.0318907 0.0291468 -0.00697413 -0.0176499 0.0318636 0.0010795 -0.00728648 0.0320837 0.00210253 -0.0103148 0.030701 -0.00069175 -0.0162267 0.0235347 -0.00120459 -0.0208003 0.0128085 -0.00103997 -0.0223139 -5.39391e-18 5.26854e-18 -0.0208003 -0.0128085 0.00103997 -0.0162267 -0.0235347 0.00120459 -0.0103148 -0.030701 0.00069175 -0.00728648 -0.0320837 -0.00210253 -0.0176499 -0.0318636 -0.0010795 -0.0318907 -0.0291468 0.00697413 -0.00588361 0 0 0.0120813 0 0 -0.0169174 0.0334444 -0.00744772 -0.0145723 0.0480047 0.000960207 -0.00750731 0.0475698 0.00232766 -0.0126239 0.039122 -0.00063856 -0.0231508 0.0270298 -0.00143247 -0.0295116 0.013717 -0.00117891 -0.0313084 -2.36902e-17 -2.93129e-17 -0.0295116 -0.013717 0.00117891 -0.0231508 -0.0270298 0.00143247 -0.0126239 -0.039122 0.00063856 -0.00750731 -0.0475698 -0.00232766 -0.0145723 -0.0480047 -0.000960207 -0.0169174 -0.0334444 0.00744772 0.0120813 0 0 -0.0174122 0 0 -0.0498861 0.0494026 -0.00703491 -0.042829 0.0777157 0.0013288 -0.0464668 0.0736577 0.00209585 -0.0574995 0.0534017 -0.000735502 -0.0636241 0.032245 -0.000993052 -0.0680567 0.0151429 -0.000917733 -0.0697439 5.73272e-18 8.11119e-18 -0.0680567 -0.0151429 0.000917733 -0.0636241 -0.032245 0.000993052 -0.0574995 -0.0534017 0.000735502 -0.0464668 -0.0736577 -0.00209585 -0.042829 -0.0777157 -0.0013288 -0.0498861 -0.0494026 0.00703491 -0.0174122 0 0 0.00911336 0 0 0.0655755 0.0625927 0.0143404 -0.00183994 0.103402 -0.00236797 -0.0557 0.0922203 -0.00437219 -0.0645453 0.0610216 0.00151629 -0.0597105 0.0349892 0.00258785 -0.0537318 0.0155456 0.00219396 -0.0517676 1.75641e-17 2.95784e-17 -0.0537318 -0.0155456 -0.00219396 -0.0597105 -0.0349892 -0.00258785 -0.0645453 -0.0610216 -0.00151629 -0.0557 -0.0922203 0.00437219 -0.00183994 -0.103402 0.00236797 0.0655755 -0.0625927 -0.0143404 0.00911336 0 0 0.00925778 0 0 0.0147899 0.145064 0.0154217 -0.0478161 0.112401 -0.0044763 -0.0823337 0.072504 -0.00567348 -0.074075 0.054633 0.00171468 -0.0553432 0.0340987 0.00270334 -0.0428632 0.0179343 0.00243136 -0.0391161 1.27665e-17 -2.3683e-18 -0.0428632 -0.0179343 -0.00243136 -0.0553432 -0.0340987 -0.00270334 -0.074075 -0.054633 -0.00171468 -0.0823337 -0.072504 0.00567348 -0.0478161 -0.112401 0.0044763 0.0147899 -0.145064 -0.0154217 0.00925778 0 0 -0.0575538 0 0 -0.238887 0.255194 -0.0402556 -0.0875581 0.0898286 0.00328365 0.0277092 0.0193489 0.00939188 0.0561758 0.0366586 -0.00440416 0.0711198 0.0269035 -0.00585049 0.07308 0.0196889 -0.00508715 0.072836 5.20959e-17 -4.33681e-18 0.07308 -0.0196889 0.00508715 0.0711198 -0.0269035 0.00585049 0.0561758 -0.0366586 0.00440416 0.0277092 -0.0193489 -0.00939188 -0.0875581 -0.0898286 -0.00328365 -0.238887 -0.255194 0.0402556 -0.0575538 0 0 0.395204 0 0 1.06777 0 0 0.970362 0 0 0.966091 0 0 1.00999 0 0 0.968634 0 0 0.980133 0 0 0.993462 0 0 0.980133 0 0 0.968634 0 0 1.00999 0 0 0.966091 0 0 0.970362 0 0 1.06777 0 0 0.395204 0 0 -0.393262 0 0 -1.06112 0 0 -0.964393 0 0 -0.960152 0 0 -1.00374 0 0 -0.962677 0 0 -0.974095 0 0 -0.987331 0 0 -0.974095 0 0 -0.962677 0 0 -1.00374 0 0 -0.960152 0 0 -0.964393 0 0 -1.06112 0 0 -0.393262 0 0 0.057271 0 0 0.23674 0.300685 0.0415382 0.0688218 0.124971 0.0013469 -0.0685948 0.0351621 -0.00692953 -0.110403 0.0462796 0.00431542 -0.130332 0.0351487 0.00551322 -0.135055 0.0237767 0.00464072 -0.135913 -1.40504e-17 9.043e-18 -0.135055 -0.0237767 -0.00464072 -0.130332 -0.0351487 -0.00551322 -0.110403 -0.0462796 -0.00431542 -0.0685948 -0.0351621 0.00692953 0.0688218 -0.124971 -0.0013469 0.23674 -0.300685 -0.0415382 0.057271 0 0 -0.00921229 0 0 -0.00205557 0.184064 -0.0133946 0.0682153 0.152033 0.00332815 0.106986 0.100342 0.00486185 0.0972403 0.0738049 -0.00128726 0.0736675 0.0467062 -0.0024041 0.057833 0.0240567 -0.00209615 0.0530752 3.70043e-17 -1.91165e-18 0.057833 -0.0240567 0.00209615 0.0736675 -0.0467062 0.0024041 0.0972403 -0.0738049 0.00128726 0.106986 -0.100342 -0.00486185 0.0682153 -0.152033 -0.00332815 -0.00205557 -0.184064 0.0133946 -0.00921229 0 0 -0.00906859 0 0 -0.0655428 0.0878016 -0.0135368 0.0133615 0.137506 0.00111666 0.0799405 0.123293 0.00364422 0.0935899 0.0838229 -0.00129696 0.0879922 0.048714 -0.0024639 0.0807464 0.0220426 -0.00201138 0.078428 1.37445e-17 9.03041e-18 0.0807464 -0.0220426 0.00201138 0.0879922 -0.048714 0.0024639 0.0935899 -0.0838229 0.00129696 0.0799405 -0.123293 -0.00364422 0.0133615 -0.137506 -0.00111666 -0.0655428 -0.0878016 0.0135368 -0.00906859 0 0 0.0173266 0 0 0.0479285 0.0670197 0.00701966 0.0451011 0.103733 -0.000651047 0.0533637 0.0992179 -0.00174084 0.0676129 0.0731677 0.000646138 0.0759751 0.0446467 0.00088439 0.0814614 0.021109 0.00080678 0.083455 -6.53932e-18 8.83639e-18 0.0814614 -0.021109 -0.00080678 0.0759751 -0.0446467 -0.00088439 0.0676129 -0.0731677 -0.000646138 0.0533637 -0.0992179 0.00174084 0.0451011 -0.103733 0.000651047 0.0479285 -0.0670197 -0.00701966 0.0173266 0 0 -0.0120219 0 0 0.0263628 0.0451606 0.00752464 0.0262215 0.0651942 -0.000416629 0.0188304 0.0649882 -0.00213591 0.0254638 0.0536736 0.000543907 0.0387013 0.037178 0.00143327 0.0470379 0.0188798 0.00115238 0.0494727 -7.01952e-18 -4.3255e-18 0.0470379 -0.0188798 -0.00115238 0.0387013 -0.037178 -0.00143327 0.0254638 -0.0536736 -0.000543907 0.0188304 -0.0649882 0.00213591 0.0262215 -0.0651942 0.000416629 0.0263628 -0.0451606 -0.00752464 -0.0120219 0 0 0.0058547 0 0 0.0336718 0.0375846 0.00688103 0.0197024 0.0438757 -0.000469645 0.00838906 0.0444672 -0.00180411 0.0118488 0.0418481 0.000599452 0.0194257 0.0320827 0.00115474 0.0252413 0.0173577 0.000970692 0.0271437 -4.64635e-17 -4.49569e-19 0.0252413 -0.0173577 -0.000970692 0.0194257 -0.0320827 -0.00115474 0.0118488 -0.0418481 -0.000599452 0.00838906 -0.0444672 0.00180411 0.0197024 -0.0438757 0.000469645 0.0336718 -0.0375846 -0.00688103 0.0058547 0 0 -4.92878e-18 0 0 -1.17573e-17 0.0363116 -3.73284e-17 5.18642e-18 0.0377614 -3.08387e-17 3.18001e-17 0.0384495 1.746e-17 1.62389e-17 0.038457 2.40531e-17 -1.09149e-17 0.0305026 -7.77913e-19 9.34611e-18 0.0168951 1.47295e-18 3.79099e-17 -3.13567e-17 4.93735e-18 2.3274e-17 -0.0168951 1.09551e-18 -2.06696e-17 -0.0305026 2.59367e-18 1.89608e-17 -0.038457 2.03463e-17 4.09082e-17 -0.0384495 6.00433e-18 -2.11566e-17 -0.0377614 -1.88329e-17 -5.63774e-17 -0.0363116 1.3839e-17 -1.21451e-17 0 0 -0.0058547 0 0 -0.0336718 0.0375846 -0.00688103 -0.0197024 0.0438757 0.000469645 -0.00838906 0.0444672 0.00180411 -0.0118488 0.0418481 -0.000599452 -0.0194257 0.0320827 -0.00115474 -0.0252413 0.0173577 -0.000970692 -0.0271437 -1.11891e-17 -1.27253e-18 -0.0252413 -0.0173577 0.000970692 -0.0194257 -0.0320827 0.00115474 -0.0118488 -0.0418481 0.000599452 -0.00838906 -0.0444672 -0.00180411 -0.0197024 -0.0438757 -0.000469645 -0.0336718 -0.0375846 0.00688103 -0.0058547 0 0 0.0120219 0 0 -0.0263628 0.0451606 -0.00752464 -0.0262215 0.0651942 0.000416629 -0.0188304 0.0649882 0.00213591 -0.0254638 0.0536736 -0.000543907 -0.0387013 0.037178 -0.00143327 -0.0470379 0.0188798 -0.00115238 -0.0494727 -3.34127e-17 -1.32027e-17 -0.0470379 -0.0188798 0.00115238 -0.0387013 -0.037178 0.00143327 -0.0254638 -0.0536736 0.000543907 -0.0188304 -0.0649882 -0.00213591 -0.0262215 -0.0651942 -0.000416629 -0.0263628 -0.0451606 0.00752464 0.0120219 0 0 -0.0173266 0 0 -0.0479285 0.0670197 -0.00701966 -0.0451011 0.103733 0.000651047 -0.0533637 0.0992179 0.00174084 -0.0676129 0.0731677 -0.000646138 -0.0759751 0.0446467 -0.00088439 -0.0814614 0.021109 -0.00080678 -0.083455 3.74531e-18 5.15572e-18 -0.0814614 -0.021109 0.00080678 -0.0759751 -0.0446467 0.00088439 -0.0676129 -0.0731677 0.000646138 -0.0533637 -0.0992179 -0.00174084 -0.0451011 -0.103733 -0.000651047 -0.0479285 -0.0670197 0.00701966 -0.0173266 0 0 0.00906859 0 0 0.0655428 0.0878016 0.0135368 -0.0133615 0.137506 -0.00111666 -0.0799405 0.123293 -0.00364422 -0.0935899 0.0838229 0.00129696 -0.0879922 0.048714 0.0024639 -0.0807464 0.0220426 0.00201138 -0.078428 2.97088e-17 3.01996e-17 -0.0807464 -0.0220426 -0.00201138 -0.0879922 -0.048714 -0.0024639 -0.0935899 -0.0838229 -0.00129696 -0.0799405 -0.123293 0.00364422 -0.0133615 -0.137506 0.00111666 0.0655428 -0.0878016 -0.0135368 0.00906859 0 0 0.00921229 0 0 0.00205557 0.184064 0.0133946 -0.0682153 0.152033 -0.00332815 -0.106986 0.100342 -0.00486185 -0.0972403 0.0738049 0.00128726 -0.0736675 0.0467062 0.0024041 -0.057833 0.0240567 0.00209615 -0.0530752 3.05468e-17 1.88555e-17 -0.057833 -0.0240567 -0.00209615 -0.0736675 -0.0467062 -0.0024041 -0.0972403 -0.0738049 -0.00128726 -0.106986 -0.100342 0.00486185 -0.0682153 -0.152033 0.00332815 0.00205557 -0.184064 -0.0133946 0.00921229 0 0 -0.057271 0 0 -0.23674 0.300685 -0.0415382 -0.0688218 0.124971 -0.0013469 0.0685948 0.0351621 0.00692953 0.110403 0.0462796 -0.00431542 0.130332 0.0351487 -0.00551322 0.135055 0.0237767 -0.00464072 0.135913 5.72068e-17 -2.11207e-17 0.135055 -0.0237767 0.00464072 0.130332 -0.0351487 0.00551322 0.110403 -0.0462796 0.00431542 0.0685948 -0.0351621 -0.00692953 -0.0688218 -0.124971 0.0013469 -0.23674 -0.300685 0.0415382 -0.057271 0 0 0.393262 0 0 1.06112 0 0 0.964393 0 0 0.960152 0 0 1.00374 0 0 0.962677 0 0 0.974095 0 0 0.987331 0 0 0.974095 0 0 0.962677 0 0 1.00374 0 0 0.960152 0 0 0.964393 0 0 1.06112 0 0 0.393262 0 0 -0.413221 0 0 -1.12949 0 0 -1.02575 0 0 -1.0212 0 0 -1.06796 0 0 -1.02391 0 0 -1.03616 0 0 -1.05035 0 0 -1.03616 0 0 -1.02391 0 0 -1.06796 0 0 -1.0212 0 0 -1.02575 0 0 -1.12949 0 0 -0.413221 0 0 0.0601776 0 0 0.240417 0.325404 0.0335029 0.0640389 0.14981 0.00442861 -0.0856045 0.0485245 -0.00362995 -0.136225 0.0534746 0.00340421 -0.16079 0.040884 0.00422523 -0.167659 0.0264976 0.00340029 -0.169207 6.3104e-19 2.48701e-17 -0.167659 -0.0264976 -0.00340029 -0.16079 -0.040884 -0.00422523 -0.136225 -0.0534746 -0.00340421 -0.0856045 -0.0485245 0.00362995 0.0640389 -0.14981 -0.00442861 0.240417 -0.325404 -0.0335029 0.0601776 0 0 -0.00967983 0 0 0.00635722 0.210029 -0.0089548 0.0807314 0.181225 0.00205055 0.121192 0.12189 0.00336674 0.11018 0.0884744 -0.000722859 0.0835255 0.0563229 -0.00172317 0.0653322 0.0287033 -0.00145534 0.0598087 1.46977e-17 -7.36459e-18 0.0653322 -0.0287033 0.00145534 0.0835255 -0.0563229 0.00172317 0.11018 -0.0884744 0.000722859 0.121192 -0.12189 -0.00336674 0.0807314 -0.181225 -0.00205055 0.00635722 -0.210029 0.0089548 -0.00967983 0 0 -0.00952883 0 0 -0.0645216 0.107067 -0.0100462 0.0214122 0.162912 6.21691e-05 0.0959813 0.146568 0.00238674 0.113151 0.101322 -0.000887699 0.107459 0.0595034 -0.00190272 0.0993978 0.0271974 -0.00149425 0.0968081 1.81552e-17 1.51714e-17 0.0993978 -0.0271974 0.00149425 0.107459 -0.0595034 0.00190272 0.113151 -0.101322 0.000887699 0.0959813 -0.146568 -0.00238674 0.0214122 -0.162912 -6.21691e-05 -0.0645216 -0.107067 0.0100462 -0.00952883 0 0 0.0182059 0 0 0.0496151 0.0803609 0.00548539 0.0504101 0.123131 -6.5902e-05 0.0628083 0.118463 -0.00113722 0.079785 0.0883653 0.000448766 0.0896107 0.0543624 0.000635935 0.095882 0.0258144 0.000566983 0.0981451 5.25245e-18 1.44343e-17 0.095882 -0.0258144 -0.000566983 0.0896107 -0.0543624 -0.000635935 0.079785 -0.0883653 -0.000448766 0.0628083 -0.118463 0.00113722 0.0504101 -0.123131 6.5902e-05 0.0496151 -0.0803609 -0.00548539 0.0182059 0 0 -0.012632 0 0 0.0292865 0.0539032 0.00603952 0.031806 0.0782642 7.61088e-05 0.0249463 0.0783833 -0.00155857 0.0325975 0.0649267 0.000366684 0.0477624 0.0450578 0.00115933 0.0574574 0.0228924 0.000911731 0.0603206 -1.96986e-17 -1.41289e-17 0.0574574 -0.0228924 -0.000911731 0.0477624 -0.0450578 -0.00115933 0.0325975 -0.0649267 -0.000366684 0.0249463 -0.0783833 0.00155857 0.031806 -0.0782642 -7.61088e-05 0.0292865 -0.0539032 -0.00603952 -0.012632 0 0 0.00615184 0 0 0.0354395 0.0435513 0.00535612 0.0223473 0.0530674 4.56916e-05 0.0109706 0.0541276 -0.0012262 0.0148374 0.0504501 0.000413277 0.0234555 0.0386359 0.000899861 0.0301532 0.0208396 0.000734612 0.0323559 -5.2197e-17 -1.11363e-18 0.0301532 -0.0208396 -0.000734612 0.0234555 -0.0386359 -0.000899861 0.0148374 -0.0504501 -0.000413277 0.0109706 -0.0541276 0.0012262 0.0223473 -0.0530674 -4.56916e-05 0.0354395 -0.0435513 -0.00535612 0.00615184 0 0 -1.59649e-17 0 0 -1.05168e-17 0.0413679 -2.75407e-17 4.98733e-18 0.0457449 -2.89305e-17 3.34824e-17 0.0469709 3.91375e-18 3.44251e-17 0.0462391 1.47693e-17 9.29026e-18 0.0366278 1.38081e-18 -2.85826e-18 0.0201989 -3.54585e-18 4.04509e-17 -3.30326e-17 1.44393e-18 3.96615e-17 -0.0201989 3.71239e-18 -4.61798e-17 -0.0366278 7.21651e-18 2.17975e-17 -0.0462391 3.22441e-17 5.67105e-17 -0.0469709 5.52472e-18 -2.68738e-17 -0.0457449 -3.55134e-17 -3.95937e-17 -0.0413679 2.02458e-17 -1.19533e-17 0 0 -0.00615184 0 0 -0.0354395 0.0435513 -0.00535612 -0.0223473 0.0530674 -4.56916e-05 -0.0109706 0.0541276 0.0012262 -0.0148374 0.0504501 -0.000413277 -0.0234555 0.0386359 -0.000899861 -0.0301532 0.0208396 -0.000734612 -0.0323559 -1.56938e-17 -4.35926e-18 -0.0301532 -0.0208396 0.000734612 -0.0234555 -0.0386359 0.000899861 -0.0148374 -0.0504501 0.000413277 -0.0109706 -0.0541276 -0.0012262 -0.0223473 -0.0530674 4.56916e-05 -0.0354395 -0.0435513 0.00535612 -0.00615184 0 0 0.012632 0 0 -0.0292865 0.0539032 -0.00603952 -0.031806 0.0782642 -7.61088e-05 -0.0249463 0.0783833 0.00155857 -0.0325975 0.0649267 -0.000366684 -0.0477624 0.0450578 -0.00115933 -0.0574574 0.0228924 -0.000911731 -0.0603206 -3.4419e-17 3.81185e-19 -0.0574574 -0.0228924 0.000911731 -0.0477624 -0.0450578 0.00115933 -0.0325975 -0.0649267 0.000366684 -0.0249463 -0.0783833 -0.00155857 -0.031806 -0.0782642 7.61088e-05 -0.0292865 -0.0539032 0.00603952 0.012632 0 0 -0.0182059 0 0 -0.0496151 0.0803609 -0.00548539 -0.0504101 0.123131 6.5902e-05 -0.0628083 0.118463 0.00113722 -0.079785 0.0883653 -0.000448766 -0.0896107 0.0543624 -0.000635935 -0.095882 0.0258144 -0.000566983 -0.0981451 1.07099e-17 3.86168e-18 -0.095882 -0.0258144 0.000566983 -0.0896107 -0.0543624 0.000635935 -0.079785 -0.0883653 0.000448766 -0.0628083 -0.118463 -0.00113722 -0.0504101 -0.123131 -6.5902e-05 -0.0496151 -0.0803609 0.00548539 -0.0182059 0 0 0.00952883 0 0 0.0645216 0.107067 0.0100462 -0.0214122 0.162912 -6.21691e-05 -0.0959813 0.146568 -0.00238674 -0.113151 0.101322 0.000887699 -0.107459 0.0595034 0.00190272 -0.0993978 0.0271974 0.00149425 -0.0968081 3.65512e-17 1.7843e-17 -0.0993978 -0.0271974 -0.00149425 -0.107459 -0.0595034 -0.00190272 -0.113151 -0.101322 -0.000887699 -0.0959813 -0.146568 0.00238674 -0.0214122 -0.162912 6.21691e-05 0.0645216 -0.107067 -0.0100462 0.00952883 0 0 0.00967983 0 0 -0.00635722 0.210029 0.0089548 -0.0807314 0.181225 -0.00205055 -0.121192 0.12189 -0.00336674 -0.11018 0.0884744 0.000722859 -0.0835255 0.0563229 0.00172317 -0.0653322 0.0287033 0.00145534 -0.0598087 2.79284e-17 1.70446e-17 -0.0653322 -0.0287033 -0.00145534 -0.0835255 -0.0563229 -0.00172317 -0.11018 -0.0884744 -0.000722859 -0.121192 -0.12189 0.00336674 -0.0807314 -0.181225 0.00205055 -0.00635722 -0.210029 -0.0089548 0.00967983 0 0 -0.0601776 0 0 -0.240417 0.325404 -0.0335029 -0.0640389 0.14981 -0.00442861 0.0856045 0.0485245 0.00362995 0.136225 0.0534746 -0.00340421 0.16079 0.040884 -0.00422523 0.167659 0.0264976 -0.00340029 0.169207 5.65954e-17 -2.00209e-17 0.167659 -0.0264976 0.00340029 0.16079 -0.040884 0.00422523 0.136225 -0.0534746 0.00340421 0.0856045 -0.0485245 -0.00362995 -0.0640389 -0.14981 0.00442861 -0.240417 -0.325404 0.0335029 -0.0601776 0 0 0.413221 0 0 1.12949 0 0 1.02575 0 0 1.0212 0 0 1.06796 0 0 1.02391 0 0 1.03616 0 0 1.05035 0 0 1.03616 0 0 1.02391 0 0 1.06796 0 0 1.0212 0 0 1.02575 0 0 1.12949 0 0 0.413221 0 0 -0.394419 0 0 -1.06508 0 0 -0.967947 0 0 -0.963688 0 0 -1.00746 0 0 -0.966224 0 0 -0.97769 0 0 -0.990981 0 0 -0.97769 0 0 -0.966224 0 0 -1.00746 0 0 -0.963688 0 0 -0.967947 0 0 -1.06508 0 0 -0.394419 0 0 0.0574394 0 0 0.224336 0.337472 0.0208597 0.0462966 0.166072 0.00544322 -0.109544 0.0584438 -0.000758335 -0.166587 0.0584502 0.00206169 -0.193782 0.0447296 0.00258162 -0.202405 0.0282248 0.00189893 -0.204661 1.43826e-17 2.87509e-17 -0.202405 -0.0282248 -0.00189893 -0.193782 -0.0447296 -0.00258162 -0.166587 -0.0584502 -0.00206169 -0.109544 -0.0584438 0.000758335 0.0462966 -0.166072 -0.00544322 0.224336 -0.337472 -0.0208597 0.0574394 0 0 -0.00923938 0 0 0.0147489 0.226165 -0.00405858 0.0908129 0.201082 0.000867107 0.131734 0.137148 0.00174347 0.119932 0.0988128 -0.000190609 0.0912663 0.0631089 -0.000960467 0.0715563 0.0319647 -0.000749686 0.0655458 -2.02475e-17 1.4927e-17 0.0715563 -0.0319647 0.000749686 0.0912663 -0.0631089 0.000960467 0.119932 -0.0988128 0.000190609 0.131734 -0.137148 -0.00174347 0.0908129 -0.201082 -0.000867107 0.0147489 -0.226165 0.00405858 -0.00923938 0 0 -0.00909525 0 0 -0.0599603 0.120456 -0.00559394 0.0297213 0.180404 -0.000587242 0.109064 0.162711 0.00111039 0.128784 0.11367 -0.000429169 0.