<?xml version="1.0"?> 
<VTKFile type="StructuredGrid" version="0.1"> 
<StructuredGrid WholeExtent="0 14 0 14 0 14"> 
<Piece Extent="0 14 0 14 0 14"> 
<PointData>
<DataArray type="Float32" Name="press" format="ascii" NumberOfComponents="1"> 
109.786 43.1583 7.94514 3.45172 6.75404 6.73743 3.66742 1.26565e-14 -3.66742 -6.73743 -6.75404 -3.45172 -7.94514 -43.1583 -109.786 37.9451 20.9537 10.7937 7.32269 5.84595 4.0872 2.06898 2.98719e-15 -2.06898 -4.0872 -5.84595 -7.32269 -10.7937 -20.9537 -37.9451 1.26328 8.14676 10.3438 7.96765 4.75388 2.5137 1.16923 -2.09555e-15 -1.16923 -2.5137 -4.75388 -7.96765 -10.3438 -8.14676 -1.26328 -1.05228 4.54393 6.6929 5.47344 3.48619 1.99209 0.95166 -2.80339e-15 -0.95166 -1.99209 -3.48619 -5.47344 -6.6929 -4.54393 1.05228 4.83544 3.75844 3.05242 2.70533 2.31953 1.70223 0.871952 -2.05684e-15 -0.871952 -1.70223 -2.31953 -2.70533 -3.05242 -3.75844 -4.83544 6.24136 2.69367 0.979478 1.05256 1.38802 1.24651 0.666182 -1.39762e-15 -0.666182 -1.24651 -1.38802 -1.05256 -0.979478 -2.69367 -6.24136 3.52404 1.37197 0.348661 0.425901 0.672848 0.638183 0.344437 -7.19477e-16 -0.344437 -0.638183 -0.672848 -0.425901 -0.348661 -1.37197 -3.52404 -9.10383e-15 -1.43635e-15 2.17881e-15 1.69346e-15 3.46254e-16 -2.88743e-16 -3.30899e-16 -1.59595e-16 6.93889e-17 2.80592e-16 -2.74086e-16 -1.36002e-15 -2.73392e-15 -3.55271e-15 -3.55271e-15 -3.52404 -1.37197 -0.348661 -0.425901 -0.672848 -0.638183 -0.344437 2.63678e-16 0.344437 0.638183 0.672848 0.425901 0.348661 1.37197 3.52404 -6.24136 -2.69367 -0.979478 -1.05256 -1.38802 -1.24651 -0.666182 5.49907e-16 0.666182 1.24651 1.38802 1.05256 0.979478 2.69367 6.24136 -4.83544 -3.75844 -3.05242 -2.70533 -2.31953 -1.70223 -0.871952 5.75928e-16 0.871952 1.70223 2.31953 2.70533 3.05242 3.75844 4.83544 1.05228 -4.54393 -6.6929 -5.47344 -3.48619 -1.99209 -0.95166 3.60822e-16 0.95166 1.99209 3.48619 5.47344 6.6929 4.54393 -1.05228 -1.26328 -8.14676 -10.3438 -7.96765 -4.75388 -2.5137 -1.16923 -3.60822e-16 1.16923 2.5137 4.75388 7.96765 10.3438 8.14676 1.26328 -37.9451 -20.9537 -10.7937 -7.32269 -5.84595 -4.0872 -2.06898 -2.33147e-15 2.06898 4.0872 5.84595 7.32269 10.7937 20.9537 37.9451 -109.786 -43.1583 -7.94514 -3.45172 -6.75404 -6.73743 -3.66742 -5.32907e-15 3.66742 6.73743 6.75404 3.45172 7.94514 43.1583 109.786 99.2864 41.1252 9.78779 4.68943 6.53788 5.97931 3.20629 3.85803e-15 -3.20629 -5.97931 -6.53788 -4.68943 -9.78779 -41.1252 -99.2864 35.9532 20.6072 11.1914 7.58534 5.81091 3.93934 1.97841 6.31223e-16 -1.97841 -3.93934 -5.81091 -7.58534 -11.1914 -20.6072 -35.9532 3.13526 8.55635 10.0731 7.7802 4.7992 2.64366 1.24754 -1.30538e-15 -1.24754 -2.64366 -4.7992 -7.7802 -10.0731 -8.55635 -3.13526 0.151762 4.80183 6.51176 5.3483 3.51361 2.07543 1.00203 -1.84586e-15 -1.00203 -2.07543 -3.51361 -5.3483 -6.51176 -4.80183 -0.151762 4.53669 3.70219 3.10643 2.74055 2.31202 1.67902 0.857914 -1.71099e-15 -0.857914 -1.67902 -2.31202 -2.74055 -3.10643 -3.70219 -4.53669 5.39742 2.52222 1.11735 1.14529 1.36795 1.18505 0.629025 -1.28159e-15 -0.629025 -1.18505 -1.36795 -1.14529 -1.11735 -2.52222 -5.39742 3.01589 1.26834 0.431214 0.481522 0.660799 0.601305 0.322142 -5.88478e-16 -0.322142 -0.601305 -0.660799 -0.481522 -0.431214 -1.26834 -3.01589 -6.91808e-15 -7.38775e-16 2.10595e-15 1.63595e-15 5.07052e-16 -1.02843e-16 -1.72903e-16 -9.1073e-17 5.9848e-17 1.37206e-16 -3.73616e-16 -1.57123e-15 -2.58127e-15 -1.47798e-15 1.79717e-15 -3.01589 -1.26834 -0.431214 -0.481522 -0.660799 -0.601305 -0.322142 7.97973e-17 0.322142 0.601305 0.660799 0.481522 0.431214 1.26834 3.01589 -5.39742 -2.52222 -1.11735 -1.14529 -1.36795 -1.18505 -0.629025 3.6646e-17 0.629025 1.18505 1.36795 1.14529 1.11735 2.52222 5.39742 -4.53669 -3.70219 -3.10643 -2.74055 -2.31202 -1.67902 -0.857914 3.44343e-16 0.857914 1.67902 2.31202 2.74055 3.10643 3.70219 4.53669 -0.151762 -4.80183 -6.51176 -5.3483 -3.51361 -2.07543 -1.00203 1.11196e-15 1.00203 2.07543 3.51361 5.3483 6.51176 4.80183 0.151762 -3.13526 -8.55635 -10.0731 -7.7802 -4.7992 -2.64366 -1.24754 8.95117e-16 1.24754 2.64366 4.7992 7.7802 10.0731 8.55635 3.13526 -35.9532 -20.6072 -11.1914 -7.58534 -5.81091 -3.93934 -1.97841 -2.9074e-15 1.97841 3.93934 5.81091 7.58534 11.1914 20.6072 35.9532 -99.2864 -41.1252 -9.78779 -4.68943 -6.53788 -5.97931 -3.20629 -1.05263e-14 3.20629 5.97931 6.53788 4.68943 9.78779 41.1252 99.2864 90.0114 38.9704 10.9853 5.56046 6.33865 5.38911 2.85005 1.11022e-16 -2.85005 -5.38911 -6.33865 -5.56046 -10.9853 -38.9704 -90.0114 34.0701 20.1702 11.4358 7.76434 5.77305 3.82176 1.90728 -2.50668e-16 -1.90728 -3.82176 -5.77305 -7.76434 -11.4358 -20.1702 -34.0701 4.63614 8.90613 9.88139 7.64209 4.83452 2.74173 1.30654 -7.11237e-16 -1.30654 -2.74173 -4.83452 -7.64209 -9.88139 -8.90613 -4.63614 1.12522 5.02966 6.38844 5.25896 3.53604 2.13837 1.03991 -1.31884e-15 -1.03991 -2.13837 -3.53604 -5.25896 -6.38844 -5.02966 -1.12522 4.25075 3.63767 3.14562 2.76851 2.30582 1.66031 0.846608 -1.58426e-15 -0.846608 -1.66031 -2.30582 -2.76851 -3.14562 -3.63767 -4.25075 4.66167 2.35291 1.21412 1.21488 1.35146 1.1372 0.600178 -1.3724e-15 -0.600178 -1.1372 -1.35146 -1.21488 -1.21412 -2.35291 -4.66167 2.57515 1.16681 0.489044 0.523128 0.650903 0.572657 0.30487 -6.57352e-16 -0.30487 -0.572657 -0.650903 -0.523128 -0.489044 -1.16681 -2.57515 -4.69069e-15 -4.0766e-17 1.97758e-15 1.50618e-15 5.0165e-16 -5.05493e-17 -1.71196e-16 -1.21431e-16 3.1225e-17 1.53306e-16 -4.5363e-16 -1.78156e-15 -2.72005e-15 -6.93889e-16 4.08007e-15 -2.57515 -1.16681 -0.489044 -0.523128 -0.650903 -0.572657 -0.30487 5.55112e-17 0.30487 0.572657 0.650903 0.523128 0.489044 1.16681 2.57515 -4.66167 -2.35291 -1.21412 -1.21488 -1.35146 -1.1372 -0.600178 8.41341e-17 0.600178 1.1372 1.35146 1.21488 1.21412 2.35291 4.66167 -4.25075 -3.63767 -3.14562 -2.76851 -2.30582 -1.66031 -0.846608 3.43475e-16 0.846608 1.66031 2.30582 2.76851 3.14562 3.63767 4.25075 -1.12522 -5.02966 -6.38844 -5.25896 -3.53604 -2.13837 -1.03991 1.06165e-15 1.03991 2.13837 3.53604 5.25896 6.38844 5.02966 1.12522 -4.63614 -8.90613 -9.88139 -7.64209 -4.83452 -2.74173 -1.30654 7.91034e-16 1.30654 2.74173 4.83452 7.64209 9.88139 8.90613 4.63614 -34.0701 -20.1702 -11.4358 -7.76434 -5.77305 -3.82176 -1.90728 -3.02536e-15 1.90728 3.82176 5.77305 7.76434 11.4358 20.1702 34.0701 -90.0114 -38.9704 -10.9853 -5.56046 -6.33865 -5.38911 -2.85005 -1.06859e-14 2.85005 5.38911 6.33865 5.56046 10.9853 38.9704 90.0114 81.9971 36.7128 11.5457 6.06788 6.15722 4.96663 2.59851 1.38431e-15 -2.59851 -4.96663 -6.15722 -6.06788 -11.5457 -36.7128 -81.9971 32.3066 19.6482 11.5289 7.86049 5.73269 3.73452 1.85559 4.02158e-16 -1.85559 -3.73452 -5.73269 -7.86049 -11.5289 -19.6482 -32.3066 5.76452 9.19498 9.76781 7.55299 4.85985 2.80806 1.34631 -5.12502e-16 -1.34631 -2.80806 -4.85985 -7.55299 -9.76781 -9.19498 -5.76452 1.86687 5.22646 6.32227 5.20515 3.55347 2.18098 1.06536 -1.29637e-15 -1.06536 -2.18098 -3.55347 -5.20515 -6.32227 -5.22646 -1.86687 3.97928 3.56554 3.17009 2.78921 2.30094 1.6461 0.838042 -1.71802e-15 -0.838042 -1.6461 -2.30094 -2.78921 -3.17009 -3.56554 -3.97928 4.03661 2.18694 1.27019 1.26145 1.33858 1.10296 0.579629 -1.57845e-15 -0.579629 -1.10296 -1.33858 -1.26145 -1.27019 -2.18694 -4.03661 2.20326 1.06806 0.522388 0.550788 0.643173 0.552225 0.292612 -9.27266e-16 -0.292612 -0.552225 -0.643173 -0.550788 -0.522388 -1.06806 -2.20326 -2.77209e-15 5.05828e-16 1.84716e-15 1.30998e-15 3.97112e-16 -1.31171e-16 -3.20845e-16 -2.76661e-16 -3.50739e-17 2.10533e-16 -4.11394e-16 -1.9289e-15 -3.07369e-15 -1.28315e-15 3.81748e-15 -2.20326 -1.06806 -0.522388 -0.550788 -0.643173 -0.552225 -0.292612 2.28875e-16 0.292612 0.552225 0.643173 0.550788 0.522388 1.06806 2.20326 -4.03661 -2.18694 -1.27019 -1.26145 -1.33858 -1.10296 -0.579629 5.4697e-16 0.579629 1.10296 1.33858 1.26145 1.27019 2.18694 4.03661 -3.97928 -3.56554 -3.17009 -2.78921 -2.30094 -1.6461 -0.838042 5.87475e-16 0.838042 1.6461 2.30094 2.78921 3.17009 3.56554 3.97928 -1.86687 -5.22646 -6.32227 -5.20515 -3.55347 -2.18098 -1.06536 2.4915e-16 1.06536 2.18098 3.55347 5.20515 6.32227 5.22646 1.86687 -5.76452 -9.19498 -9.76781 -7.55299 -4.85985 -2.80806 -1.34631 -6.52744e-16 1.34631 2.80806 4.85985 7.55299 9.76781 9.19498 5.76452 -32.3066 -19.6482 -11.5289 -7.86049 -5.73269 -3.73452 -1.85559 -2.67332e-15 1.85559 3.73452 5.73269 7.86049 11.5289 19.6482 32.3066 -81.9971 -36.7128 -11.5457 -6.06788 -6.15722 -4.96663 -2.59851 -5.85469e-15 2.59851 4.96663 6.15722 6.06788 11.5457 36.7128 81.9971 76.4353 34.9793 11.7335 6.31302 6.02221 4.70555 2.4451 2.88658e-15 -2.4451 -4.70555 -6.02221 -6.31302 -11.7335 -34.9793 -76.4353 31.0234 19.222 11.5406 7.90013 5.70002 3.67925 1.82348 8.64109e-16 -1.82348 -3.67925 -5.70002 -7.90013 -11.5406 -19.222 -31.0234 6.47353 9.38586 9.70761 7.50258 4.87564 2.84734 1.36979 -6.4098e-16 -1.36979 -2.84734 -4.87564 -7.50258 -9.70761 -9.38586 -6.47353 2.33616 5.36052 6.29191 5.17728 3.56512 2.20621 1.08031 -1.43786e-15 -1.08031 -2.20621 -3.56512 -5.17728 -6.29191 -5.36052 -2.33616 3.77733 3.50771 3.1834 2.80238 2.2977 1.63691 0.832505 -1.82734e-15 -0.832505 -1.63691 -2.2977 -2.80238 -3.1834 -3.50771 -3.77733 3.60478 2.06341 1.29843 1.2885 1.32999 1.08175 0.566951 -1.67662e-15 -0.566951 -1.08175 -1.32999 -1.2885 -1.29843 -2.06341 -3.60478 1.94762 0.99494 0.539095 0.566757 0.638022 0.539602 0.285073 -1.06279e-15 -0.285073 -0.539602 -0.638022 -0.566757 -0.539095 -0.99494 -1.94762 -1.20737e-15 1.08355e-15 1.90906e-15 1.23151e-15 3.31495e-16 -2.38989e-16 -3.95463e-16 -3.41741e-16 -8.32667e-17 1.36149e-16 -4.56232e-16 -1.99927e-15 -3.20317e-15 -1.92207e-15 2.08861e-15 -1.94762 -0.99494 -0.539095 -0.566757 -0.638022 -0.539602 -0.285073 3.29597e-16 0.285073 0.539602 0.638022 0.566757 0.539095 0.99494 1.94762 -3.60478 -2.06341 -1.29843 -1.2885 -1.32999 -1.08175 -0.566951 8.53484e-16 0.566951 1.08175 1.32999 1.2885 1.29843 2.06341 3.60478 -3.77733 -3.50771 -3.1834 -2.80238 -2.2977 -1.63691 -0.832505 6.21898e-16 0.832505 1.63691 2.2977 2.80238 3.1834 3.50771 3.77733 -2.33616 -5.36052 -6.29191 -5.17728 -3.56512 -2.20621 -1.08031 -4.64906e-16 1.08031 2.20621 3.56512 5.17728 6.29191 5.36052 2.33616 -6.47353 -9.38586 -9.70761 -7.50258 -4.87564 -2.84734 -1.36979 -1.82146e-15 1.36979 2.84734 4.87564 7.50258 9.70761 9.38586 6.47353 -31.0234 -19.222 -11.5406 -7.90013 -5.70002 -3.67925 -1.82348 -2.42167e-15 1.82348 3.67925 5.70002 7.90013 11.5406 19.222 31.0234 -76.4353 -34.9793 -11.7335 -6.31302 -6.02221 -4.70555 -2.4451 -1.92901e-15 2.4451 4.70555 6.02221 6.31302 11.7335 34.9793 76.4353 73.904 34.0741 11.6769 6.34502 5.9475 4.60278 2.38664 2.72005e-15 -2.38664 -4.60278 -5.9475 -6.34502 -11.6769 -34.0741 -73.904 30.3955 18.9793 11.5045 7.89603 5.67996 3.65677 1.81102 4.63171e-16 -1.81102 -3.65677 -5.67996 -7.89603 -11.5045 -18.9793 -30.3955 6.74046 9.46082 9.68878 7.48584 4.8821 2.86185 1.37841 -9.92262e-16 -1.37841 -2.86185 -4.8821 -7.48584 -9.68878 -9.46082 -6.74046 2.51344 5.41644 6.28701 5.17072 3.57062 2.21548 1.08569 -1.62989e-15 -1.08569 -2.21548 -3.57062 -5.17072 -6.28701 -5.41644 -2.51344 3.67157 3.4748 3.1873 2.80787 2.29626 1.63297 0.830137 -1.76335e-15 -0.830137 -1.63297 -2.29626 -2.80787 -3.1873 -3.4748 -3.67157 3.4062 2.00131 1.30509 1.29774 1.32605 1.07328 0.561938 -1.47784e-15 -0.561938 -1.07328 -1.32605 -1.29774 -1.30509 -2.00131 -3.4062 1.83122 0.958521 0.542968 0.572126 0.63565 0.534588 0.282107 -8.63892e-16 -0.282107 -0.534588 -0.63565 -0.572126 -0.542968 -0.958521 -1.83122 -2.77556e-17 1.74773e-15 2.14412e-15 1.27629e-15 3.30001e-16 -2.02668e-16 -2.87314e-16 -2.34188e-16 -1.59595e-16 -1.41488e-16 -6.86083e-16 -1.85268e-15 -2.93168e-15 -2.34535e-15 8.32667e-17 -1.83122 -0.958521 -0.542968 -0.572126 -0.63565 -0.534588 -0.282107 3.05311e-16 0.282107 0.534588 0.63565 0.572126 0.542968 0.958521 1.83122 -3.4062 -2.00131 -1.30509 -1.29774 -1.32605 -1.07328 -0.561938 6.43149e-16 0.561938 1.07328 1.32605 1.29774 1.30509 2.00131 3.4062 -3.67157 -3.4748 -3.1873 -2.80787 -2.29626 -1.63297 -0.830137 3.33067e-16 0.830137 1.63297 2.29626 2.80787 3.1873 3.4748 3.67157 -2.51344 -5.41644 -6.28701 -5.17072 -3.57062 -2.21548 -1.08569 -7.35523e-16 1.08569 2.21548 3.57062 5.17072 6.28701 5.41644 2.51344 -6.74046 -9.46082 -9.68878 -7.48584 -4.8821 -2.86185 -1.37841 -2.00534e-15 1.37841 2.86185 4.8821 7.48584 9.68878 9.46082 6.74046 -30.3955 -18.9793 -11.5045 -7.89603 -5.67996 -3.65677 -1.81102 -2.48412e-15 1.81102 3.65677 5.67996 7.89603 11.5045 18.9793 30.3955 -73.904 -34.0741 -11.6769 -6.34502 -5.9475 -4.60278 -2.38664 -2.10942e-15 2.38664 4.60278 5.9475 6.34502 11.6769 34.0741 73.904 74.1149 33.9304 11.4142 6.19249 5.92875 4.6416 2.41291 1.02869e-15 -2.41291 -4.6416 -5.92875 -6.19249 -11.4142 -33.9304 -74.1149 30.3651 18.9077 11.4296 7.85467 5.67186 3.66367 1.81612 -7.53033e-16 -1.81612 -3.66367 -5.67186 -7.85467 -11.4296 -18.9077 -30.3651 6.61322 9.43215 9.70647 7.49892 4.8802 2.85431 1.3738 -1.57361e-15 -1.3738 -2.85431 -4.8802 -7.49892 -9.70647 -9.43215 -6.61322 2.43029 5.40219 6.30422 5.1828 3.57055 2.21053 1.08256 -1.74558e-15 -1.08256 -2.21053 -3.57055 -5.1828 -6.30422 -5.40219 -2.43029 3.65432 3.46512 3.1829 2.80647 2.29645 1.63376 0.830622 -1.52141e-15 -0.830622 -1.63376 -2.29645 -2.80647 -3.1829 -3.46512 -3.65432 3.41891 1.9954 1.29287 1.2912 1.3263 1.07623 0.563781 -1.07437e-15 -0.563781 -1.07623 -1.3263 -1.2912 -1.29287 -1.9954 -3.41891 1.8408 0.955639 0.535621 0.568102 0.635797 0.536384 0.283231 -4.20928e-16 -0.283231 -0.536384 -0.635797 -0.568102 -0.535621 -0.955639 -1.8408 5.64652e-16 2.4014e-15 2.67581e-15 1.47865e-15 3.33288e-16 -1.5349e-16 -3.18417e-17 2.67798e-17 -1.54174e-16 -5.09575e-16 -1.00251e-15 -1.63389e-15 -2.17795e-15 -2.38351e-15 -2.28203e-15 -1.8408 -0.955639 -0.535621 -0.568102 -0.635797 -0.536384 -0.283231 1.73039e-16 0.283231 0.536384 0.635797 0.568102 0.535621 0.955639 1.8408 -3.41891 -1.9954 -1.29287 -1.2912 -1.3263 -1.07623 -0.563781 2.52619e-17 0.563781 1.07623 1.3263 1.2912 1.29287 1.9954 3.41891 -3.65432 -3.46512 -3.1829 -2.80647 -2.29645 -1.63376 -0.830622 -2.01878e-16 0.830622 1.63376 2.29645 2.80647 3.1829 3.46512 3.65432 -2.43029 -5.40219 -6.30422 -5.1828 -3.57055 -2.21053 -1.08256 -5.30392e-16 1.08256 2.21053 3.57055 5.1828 6.30422 5.40219 2.43029 -6.61322 -9.43215 -9.70647 -7.49892 -4.8802 -2.85431 -1.3738 -1.22287e-15 1.3738 2.85431 4.8802 7.49892 9.70647 9.43215 6.61322 -30.3651 -18.9077 -11.4296 -7.85467 -5.67186 -3.66367 -1.81612 -2.87444e-15 1.81612 3.66367 5.67186 7.85467 11.4296 18.9077 30.3651 -74.1149 -33.9304 -11.4142 -6.19249 -5.92875 -4.6416 -2.41291 -5.46958e-15 2.41291 4.6416 5.92875 6.19249 11.4142 33.9304 74.1149 74.4015 33.9324 11.298 6.12018 5.92576 4.66709 2.42933 -9.71445e-17 -2.42933 -4.66709 -5.92576 -6.12018 -11.298 -33.9324 -74.4015 30.3982 18.8931 11.398 7.83603 5.66966 3.66852 1.81939 -1.22385e-15 -1.81939 -3.66852 -5.66966 -7.83603 -11.398 -18.8931 -30.3982 6.53488 9.41339 9.71599 7.50617 4.87885 2.84976 1.37104 -1.75207e-15 -1.37104 -2.84976 -4.87885 -7.50617 -9.71599 -9.41339 -6.53488 2.37888 5.39147 6.31247 5.18883 3.5701 2.20756 1.08072 -1.76959e-15 -1.08072 -2.20756 -3.5701 -5.18883 -6.31247 -5.39147 -2.37888 3.65434 3.46316 3.1806 2.80541 2.29664 1.63442 0.831021 -1.47017e-15 -0.831021 -1.63442 -2.29664 -2.80541 -3.1806 -3.46316 -3.65434 3.43962 1.99735 1.28677 1.2875 1.32672 1.07821 0.565001 -9.32836e-16 -0.565001 -1.07821 -1.32672 -1.2875 -1.28677 -1.99735 -3.43962 1.85393 0.95705 0.531963 0.565855 0.636042 0.537582 0.283969 -2.28496e-16 -0.283969 -0.537582 -0.636042 -0.565855 -0.531963 -0.95705 -1.85393 4.44089e-16 2.32279e-15 2.71137e-15 1.56147e-15 3.72317e-16 -4.93563e-17 1.25713e-16 1.48319e-16 -1.43982e-16 -6.82288e-16 -1.19045e-15 -1.59595e-15 -1.88651e-15 -2.10248e-15 -2.20657e-15 -1.85393 -0.95705 -0.531963 -0.565855 -0.636042 -0.537582 -0.283969 1.05818e-16 0.283969 0.537582 0.636042 0.565855 0.531963 0.95705 1.85393 -3.43962 -1.99735 -1.28677 -1.2875 -1.32672 -1.07821 -0.565001 -2.51752e-16 0.565001 1.07821 1.32672 1.2875 1.28677 1.99735 3.43962 -3.65434 -3.46316 -3.1806 -2.80541 -2.29664 -1.63442 -0.831021 -4.16334e-16 0.831021 1.63442 2.29664 2.80541 3.1806 3.46316 3.65434 -2.37888 -5.39147 -6.31247 -5.18883 -3.5701 -2.20756 -1.08072 -3.67761e-16 1.08072 2.20756 3.5701 5.18883 6.31247 5.39147 2.37888 -6.53488 -9.41339 -9.71599 -7.50617 -4.87885 -2.84976 -1.37104 -7.04298e-16 1.37104 2.84976 4.87885 7.50617 9.71599 9.41339 6.53488 -30.3982 -18.8931 -11.398 -7.83603 -5.66966 -3.66852 -1.81939 -2.67841e-15 1.81939 3.66852 5.66966 7.83603 11.398 18.8931 30.3982 -74.4015 -33.9324 -11.298 -6.12018 -5.92576 -4.66709 -2.42933 -6.32827e-15 2.42933 4.66709 5.92576 6.12018 11.298 33.9324 74.4015 74.1149 33.9304 11.4142 6.19249 5.92875 4.6416 2.41291 1.11022e-16 -2.41291 -4.6416 -5.92875 -6.19249 -11.4142 -33.9304 -74.1149 30.3651 18.9077 11.4296 7.85467 5.67186 3.66367 1.81612 -7.91034e-16 -1.81612 -3.66367 -5.67186 -7.85467 -11.4296 -18.9077 -30.3651 6.61322 9.43215 9.70647 7.49892 4.8802 2.85431 1.3738 -1.36002e-15 -1.3738 -2.85431 -4.8802 -7.49892 -9.70647 -9.43215 -6.61322 2.43029 5.40219 6.30422 5.1828 3.57055 2.21053 1.08256 -1.65889e-15 -1.08256 -2.21053 -3.57055 -5.1828 -6.30422 -5.40219 -2.43029 3.65432 3.46512 3.1829 2.80647 2.29645 1.63376 0.830622 -1.53049e-15 -0.830622 -1.63376 -2.29645 -2.80647 -3.1829 -3.46512 -3.65432 3.41891 1.9954 1.29287 1.2912 1.3263 1.07623 0.563781 -1.12846e-15 -0.563781 -1.07623 -1.3263 -1.2912 -1.29287 -1.9954 -3.41891 1.8408 0.955639 0.535621 0.568102 0.635797 0.536384 0.283231 -4.29778e-16 -0.283231 -0.536384 -0.635797 -0.568102 -0.535621 -0.955639 -1.8408 -8.04912e-16 1.42508e-15 2.18228e-15 1.42313e-15 4.53794e-16 5.15077e-17 9.06393e-17 6.07153e-17 -1.52656e-16 -5.13695e-16 -1.1241e-15 -1.83187e-15 -2.27249e-15 -1.38778e-15 6.66134e-16 -1.8408 -0.955639 -0.535621 -0.568102 -0.635797 -0.536384 -0.283231 2.08167e-16 0.283231 0.536384 0.635797 0.568102 0.535621 0.955639 1.8408 -3.41891 -1.9954 -1.29287 -1.2912 -1.3263 -1.07623 -0.563781 6.07153e-17 0.563781 1.07623 1.3263 1.2912 1.29287 1.9954 3.41891 -3.65432 -3.46512 -3.1829 -2.80647 -2.29645 -1.63376 -0.830622 -1.11022e-16 0.830622 1.63376 2.29645 2.80647 3.1829 3.46512 3.65432 -2.43029 -5.40219 -6.30422 -5.1828 -3.57055 -2.21053 -1.08256 -2.77556e-16 1.08256 2.21053 3.57055 5.1828 6.30422 5.40219 2.43029 -6.61322 -9.43215 -9.70647 -7.49892 -4.8802 -2.85431 -1.3738 -6.48787e-16 1.3738 2.85431 4.8802 7.49892 9.70647 9.43215 6.61322 -30.3651 -18.9077 -11.4296 -7.85467 -5.67186 -3.66367 -1.81612 -1.7486e-15 1.81612 3.66367 5.67186 7.85467 11.4296 18.9077 30.3651 -74.1149 -33.9304 -11.4142 -6.19249 -5.92875 -4.6416 -2.41291 -3.4972e-15 2.41291 4.6416 5.92875 6.19249 11.4142 33.9304 74.1149 73.904 34.0741 11.6769 6.34502 5.9475 4.60278 2.38664 1.419e-15 -2.38664 -4.60278 -5.9475 -6.34502 -11.6769 -34.0741 -73.904 30.3955 18.9793 11.5045 7.89603 5.67996 3.65677 1.81102 3.32958e-16 -1.81102 -3.65677 -5.67996 -7.89603 -11.5045 -18.9793 -30.3955 6.74046 9.46082 9.68878 7.48584 4.8821 2.86185 1.37841 -6.28404e-16 -1.37841 -2.86185 -4.8821 -7.48584 -9.68878 -9.46082 -6.74046 2.51344 5.41644 6.28701 5.17072 3.57062 2.21548 1.08569 -1.41549e-15 -1.08569 -2.21548 -3.57062 -5.17072 -6.28701 -5.41644 -2.51344 3.67157 3.4748 3.1873 2.80787 2.29626 1.63297 0.830137 -1.81037e-15 -0.830137 -1.63297 -2.29626 -2.80787 -3.1873 -3.4748 -3.67157 3.4062 2.00131 1.30509 1.29774 1.32605 1.07328 0.561938 -1.59508e-15 -0.561938 -1.07328 -1.32605 -1.29774 -1.30509 -2.00131 -3.4062 1.83122 0.958521 0.542968 0.572126 0.63565 0.534588 0.282107 -8.81633e-16 -0.282107 -0.534588 -0.63565 -0.572126 -0.542968 -0.958521 -1.83122 -2.47025e-15 1.53848e-16 1.30928e-15 1.07202e-15 5.44294e-16 1.55304e-16 -7.65176e-17 -1.73689e-16 -1.43115e-16 -1.35849e-16 -7.83187e-16 -2.21844e-15 -3.0581e-15 -6.50521e-16 5.02376e-15 -1.83122 -0.958521 -0.542968 -0.572126 -0.63565 -0.534588 -0.282107 4.09395e-16 0.282107 0.534588 0.63565 0.572126 0.542968 0.958521 1.83122 -3.4062 -2.00131 -1.30509 -1.29774 -1.32605 -1.07328 -0.561938 7.57478e-16 0.561938 1.07328 1.32605 1.29774 1.30509 2.00131 3.4062 -3.67157 -3.4748 -3.1873 -2.80787 -2.29626 -1.63297 -0.830137 5.42535e-16 0.830137 1.63297 2.29626 2.80787 3.1873 3.4748 3.67157 -2.51344 -5.41644 -6.28701 -5.17072 -3.57062 -2.21548 -1.08569 -2.498e-16 1.08569 2.21548 3.57062 5.17072 6.28701 5.41644 2.51344 -6.74046 -9.46082 -9.68878 -7.48584 -4.8821 -2.86185 -1.37841 -1.01676e-15 1.37841 2.86185 4.8821 7.48584 9.68878 9.46082 6.74046 -30.3955 -18.9793 -11.5045 -7.89603 -5.67996 -3.65677 -1.81102 -4.04191e-16 1.81102 3.65677 5.67996 7.89603 11.5045 18.9793 30.3955 -73.904 -34.0741 -11.6769 -6.34502 -5.9475 -4.60278 -2.38664 1.45023e-15 2.38664 4.60278 5.9475 6.34502 11.6769 34.0741 73.904 76.4353 34.9793 11.7335 6.31302 6.02221 4.70555 2.4451 1.83187e-15 -2.4451 -4.70555 -6.02221 -6.31302 -11.7335 -34.9793 -76.4353 31.0234 19.222 11.5406 7.90013 5.70002 3.67925 1.82348 5.97612e-16 -1.82348 -3.67925 -5.70002 -7.90013 -11.5406 -19.222 -31.0234 6.47353 9.38586 9.70761 7.50258 4.87564 2.84734 1.36979 -3.92048e-16 -1.36979 -2.84734 -4.87564 -7.50258 -9.70761 -9.38586 -6.47353 2.33616 5.36052 6.29191 5.17728 3.56512 2.20621 1.08031 -1.34237e-15 -1.08031 -2.20621 -3.56512 -5.17728 -6.29191 -5.36052 -2.33616 3.77733 3.50771 3.1834 2.80238 2.2977 1.63691 0.832505 -1.85556e-15 -0.832505 -1.63691 -2.2977 -2.80238 -3.1834 -3.50771 -3.77733 3.60478 2.06341 1.29843 1.2885 1.32999 1.08175 0.566951 -1.73243e-15 -0.566951 -1.08175 -1.32999 -1.2885 -1.29843 -2.06341 -3.60478 1.94762 0.99494 0.539095 0.566757 0.638022 0.539602 0.285073 -1.0044e-15 -0.285073 -0.539602 -0.638022 -0.566757 -0.539095 -0.99494 -1.94762 -2.66454e-15 -3.10516e-16 8.67362e-16 8.91396e-16 5.25218e-16 1.91537e-16 -1.38019e-16 -2.61076e-16 -1.59595e-16 1.21837e-17 -5.83084e-16 -2.04654e-15 -2.96985e-15 -6.38378e-16 5.10703e-15 -1.94762 -0.99494 -0.539095 -0.566757 -0.638022 -0.539602 -0.285073 4.09395e-16 0.285073 0.539602 0.638022 0.566757 0.539095 0.99494 1.94762 -3.60478 -2.06341 -1.29843 -1.2885 -1.32999 -1.08175 -0.566951 9.08561e-16 0.566951 1.08175 1.32999 1.2885 1.29843 2.06341 3.60478 -3.77733 -3.50771 -3.1834 -2.80238 -2.2977 -1.63691 -0.832505 7.68482e-16 0.832505 1.63691 2.2977 2.80238 3.1834 3.50771 3.77733 -2.33616 -5.36052 -6.29191 -5.17728 -3.56512 -2.20621 -1.08031 -8.32667e-17 1.08031 2.20621 3.56512 5.17728 6.29191 5.36052 2.33616 -6.47353 -9.38586 -9.70761 -7.50258 -4.87564 -2.84734 -1.36979 -1.00094e-15 1.36979 2.84734 4.87564 7.50258 9.70761 9.38586 6.47353 -31.0234 -19.222 -11.5406 -7.90013 -5.70002 -3.67925 -1.82348 -8.32667e-16 1.82348 3.67925 5.70002 7.90013 11.5406 19.222 31.0234 -76.4353 -34.9793 -11.7335 -6.31302 -6.02221 -4.70555 -2.4451 2.77556e-16 2.4451 4.70555 6.02221 6.31302 11.7335 34.9793 76.4353 81.9971 36.7128 11.5457 6.06788 6.15722 4.96663 2.59851 1.05471e-15 -2.59851 -4.96663 -6.15722 -6.06788 -11.5457 -36.7128 -81.9971 32.3066 19.6482 11.5289 7.86049 5.73269 3.73452 1.85559 6.07153e-17 -1.85559 -3.73452 -5.73269 -7.86049 -11.5289 -19.6482 -32.3066 5.76452 9.19498 9.76781 7.55299 4.85985 2.80806 1.34631 -7.28584e-16 -1.34631 -2.80806 -4.85985 -7.55299 -9.76781 -9.19498 -5.76452 1.86687 5.22646 6.32227 5.20515 3.55347 2.18098 1.06536 -1.42861e-15 -1.06536 -2.18098 -3.55347 -5.20515 -6.32227 -5.22646 -1.86687 3.97928 3.56554 3.17009 2.78921 2.30094 1.6461 0.838042 -1.71954e-15 -0.838042 -1.6461 -2.30094 -2.78921 -3.17009 -3.56554 -3.97928 4.03661 2.18694 1.27019 1.26145 1.33858 1.10296 0.579629 -1.49828e-15 -0.579629 -1.10296 -1.33858 -1.26145 -1.27019 -2.18694 -4.03661 2.20326 1.06806 0.522388 0.550788 0.643173 0.552225 0.292612 -8.04478e-16 -0.292612 -0.552225 -0.643173 -0.550788 -0.522388 -1.06806 -2.20326 -1.05471e-15 4.11129e-16 9.78384e-16 7.62613e-16 4.20121e-16 9.98519e-17 -8.97719e-17 -1.76942e-16 -1.52656e-16 -1.558e-16 -5.408e-16 -1.34354e-15 -2.09555e-15 -1.58207e-15 1.66533e-16 -2.20326 -1.06806 -0.522388 -0.550788 -0.643173 -0.552225 -0.292612 2.35922e-16 0.292612 0.552225 0.643173 0.550788 0.522388 1.06806 2.20326 -4.03661 -2.18694 -1.27019 -1.26145 -1.33858 -1.10296 -0.579629 4.42354e-16 0.579629 1.10296 1.33858 1.26145 1.27019 2.18694 4.03661 -3.97928 -3.56554 -3.17009 -2.78921 -2.30094 -1.6461 -0.838042 4.64906e-16 0.838042 1.6461 2.30094 2.78921 3.17009 3.56554 3.97928 -1.86687 -5.22646 -6.32227 -5.20515 -3.55347 -2.18098 -1.06536 3.19189e-16 1.06536 2.18098 3.55347 5.20515 6.32227 5.22646 1.86687 -5.76452 -9.19498 -9.76781 -7.55299 -4.85985 -2.80806 -1.34631 -5.41234e-16 1.34631 2.80806 4.85985 7.55299 9.76781 9.19498 5.76452 -32.3066 -19.6482 -11.5289 -7.86049 -5.73269 -3.73452 -1.85559 -3.27516e-15 1.85559 3.73452 5.73269 7.86049 11.5289 19.6482 32.3066 -81.9971 -36.7128 -11.5457 -6.06788 -6.15722 -4.96663 -2.59851 -7.82707e-15 2.59851 4.96663 6.15722 6.06788 11.5457 36.7128 81.9971 90.0114 38.9704 10.9853 5.56046 6.33865 5.38911 2.85005 6.38378e-16 -2.85005 -5.38911 -6.33865 -5.56046 -10.9853 -38.9704 -90.0114 34.0701 20.1702 11.4358 7.76434 5.77305 3.82176 1.90728 -7.19693e-16 -1.90728 -3.82176 -5.77305 -7.76434 -11.4358 -20.1702 -34.0701 4.63614 8.90613 9.88139 7.64209 4.83452 2.74173 1.30654 -1.51528e-15 -1.30654 -2.74173 -4.83452 -7.64209 -9.88139 -8.90613 -4.63614 1.12522 5.02966 6.38844 5.25896 3.53604 2.13837 1.03991 -1.65698e-15 -1.03991 -2.13837 -3.53604 -5.25896 -6.38844 -5.02966 -1.12522 4.25075 3.63767 3.14562 2.76851 2.30582 1.66031 0.846608 -1.46511e-15 -0.846608 -1.66031 -2.30582 -2.76851 -3.14562 -3.63767 -4.25075 4.66167 2.35291 1.21412 1.21488 1.35146 1.1372 0.600178 -1.05144e-15 -0.600178 -1.1372 -1.35146 -1.21488 -1.21412 -2.35291 -4.66167 2.57515 1.16681 0.489044 0.523128 0.650903 0.572657 0.30487 -4.59973e-16 -0.30487 -0.572657 -0.650903 -0.523128 -0.489044 -1.16681 -2.57515 2.08167e-16 1.31926e-15 1.52395e-15 8.95245e-16 2.85639e-16 -6.77579e-17 -6.63532e-17 -8.67362e-17 -1.78677e-16 -3.41686e-16 -4.68809e-16 -7.1991e-16 -1.24033e-15 -2.6576e-15 -4.96825e-15 -2.57515 -1.16681 -0.489044 -0.523128 -0.650903 -0.572657 -0.30487 -2.94903e-17 0.30487 0.572657 0.650903 0.523128 0.489044 1.16681 2.57515 -4.66167 -2.35291 -1.21412 -1.21488 -1.35146 -1.1372 -0.600178 -1.66317e-16 0.600178 1.1372 1.35146 1.21488 1.21412 2.35291 4.66167 -4.25075 -3.63767 -3.14562 -2.76851 -2.30582 -1.66031 -0.846608 2.42861e-17 0.846608 1.66031 2.30582 2.76851 3.14562 3.63767 4.25075 -1.12522 -5.02966 -6.38844 -5.25896 -3.53604 -2.13837 -1.03991 6.03684e-16 1.03991 2.13837 3.53604 5.25896 6.38844 5.02966 1.12522 -4.63614 -8.90613 -9.88139 -7.64209 -4.83452 -2.74173 -1.30654 -1.5439e-16 1.30654 2.74173 4.83452 7.64209 9.88139 8.90613 4.63614 -34.0701 -20.1702 -11.4358 -7.76434 -5.77305 -3.82176 -1.90728 -5.88418e-15 1.90728 3.82176 5.77305 7.76434 11.4358 20.1702 34.0701 -90.0114 -38.9704 -10.9853 -5.56046 -6.33865 -5.38911 -2.85005 -1.65146e-14 2.85005 5.38911 6.33865 5.56046 10.9853 38.9704 90.0114 99.2864 41.1252 9.78779 4.68943 6.53788 5.97931 3.20629 2.77556e-15 -3.20629 -5.97931 -6.53788 -4.68943 -9.78779 -41.1252 -99.2864 35.9532 20.6072 11.1914 7.58534 5.81091 3.93934 1.97841 -5.91541e-16 -1.97841 -3.93934 -5.81091 -7.58534 -11.1914 -20.6072 -35.9532 3.13526 8.55635 10.0731 7.7802 4.7992 2.64366 1.24754 -2.17187e-15 -1.24754 -2.64366 -4.7992 -7.7802 -10.0731 -8.55635 -3.13526 0.151762 4.80183 6.51176 5.3483 3.51361 2.07543 1.00203 -1.95837e-15 -1.00203 -2.07543 -3.51361 -5.3483 -6.51176 -4.80183 -0.151762 4.53669 3.70219 3.10643 2.74055 2.31202 1.67902 0.857914 -1.27903e-15 -0.857914 -1.67902 -2.31202 -2.74055 -3.10643 -3.70219 -4.53669 5.39742 2.52222 1.11735 1.14529 1.36795 1.18505 0.629025 -8.04849e-16 -0.629025 -1.18505 -1.36795 -1.14529 -1.11735 -2.52222 -5.39742 3.01589 1.26834 0.431214 0.481522 0.660799 0.601305 0.322142 -5.31693e-16 -0.322142 -0.601305 -0.660799 -0.481522 -0.431214 -1.26834 -3.01589 -3.21965e-15 7.12971e-16 2.22045e-15 1.52721e-15 3.9806e-16 -1.99042e-16 -3.40439e-16 -2.87964e-16 -9.71445e-17 5.74627e-17 -4.09395e-16 -1.49533e-15 -2.60902e-15 -2.13718e-15 -1.11022e-16 -3.01589 -1.26834 -0.431214 -0.481522 -0.660799 -0.601305 -0.322142 -6.245e-17 0.322142 0.601305 0.660799 0.481522 0.431214 1.26834 3.01589 -5.39742 -2.52222 -1.11735 -1.14529 -1.36795 -1.18505 -0.629025 1.52656e-16 0.629025 1.18505 1.36795 1.14529 1.11735 2.52222 5.39742 -4.53669 -3.70219 -3.10643 -2.74055 -2.31202 -1.67902 -0.857914 1.56125e-16 0.857914 1.67902 2.31202 2.74055 3.10643 3.70219 4.53669 -0.151762 -4.80183 -6.51176 -5.3483 -3.51361 -2.07543 -1.00203 0 1.00203 2.07543 3.51361 5.3483 6.51176 4.80183 0.151762 -3.13526 -8.55635 -10.0731 -7.7802 -4.7992 -2.64366 -1.24754 -1.17267e-15 1.24754 2.64366 4.7992 7.7802 10.0731 8.55635 3.13526 -35.9532 -20.6072 -11.1914 -7.58534 -5.81091 -3.93934 -1.97841 -4.996e-15 1.97841 3.93934 5.81091 7.58534 11.1914 20.6072 35.9532 -99.2864 -41.1252 -9.78779 -4.68943 -6.53788 -5.97931 -3.20629 -1.15463e-14 3.20629 5.97931 6.53788 4.68943 9.78779 41.1252 99.2864 109.786 43.1583 7.94514 3.45172 6.75404 6.73743 3.66742 7.77156e-15 -3.66742 -6.73743 -6.75404 -3.45172 -7.94514 -43.1583 -109.786 37.9451 20.9537 10.7937 7.32269 5.84595 4.0872 2.06898 5.93275e-16 -2.06898 -4.0872 -5.84595 -7.32269 -10.7937 -20.9537 -37.9451 1.26328 8.14676 10.3438 7.96765 4.75388 2.5137 1.16923 -2.76168e-15 -1.16923 -2.5137 -4.75388 -7.96765 -10.3438 -8.14676 -1.26328 -1.05228 4.54393 6.6929 5.47344 3.48619 1.99209 0.95166 -2.33535e-15 -0.95166 -1.99209 -3.48619 -5.47344 -6.6929 -4.54393 1.05228 4.83544 3.75844 3.05242 2.70533 2.31953 1.70223 0.871952 -1.19454e-15 -0.871952 -1.70223 -2.31953 -2.70533 -3.05242 -3.75844 -4.83544 6.24136 2.69367 0.979478 1.05256 1.38802 1.24651 0.666182 -7.75291e-16 -0.666182 -1.24651 -1.38802 -1.05256 -0.979478 -2.69367 -6.24136 3.52404 1.37197 0.348661 0.425901 0.672848 0.638183 0.344437 -1.02826e-15 -0.344437 -0.638183 -0.672848 -0.425901 -0.348661 -1.37197 -3.52404 -1.11022e-14 -1.3739e-15 3.19189e-15 2.66611e-15 8.89191e-16 -3.65128e-16 -9.22006e-16 -8.04912e-16 1.38778e-17 9.979e-16 -1.59595e-16 -3.79557e-15 -6.17562e-15 1.11022e-16 1.53211e-14 -3.52404 -1.37197 -0.348661 -0.425901 -0.672848 -0.638183 -0.344