<?xml version="1.0"?> 
<VTKFile type="StructuredGrid" version="0.1"> 
<StructuredGrid WholeExtent="0 19 0 19 0 0"> 
<Piece Extent="0 19 0 19 0 0"> 
<PointData>
<DataArray type="Float32" Name="press" format="ascii" NumberOfComponents="1"> 
-1.23981 -1.2315 -1.20657 -1.16502 -1.10685 -1.03206 -0.940643 -0.83261 -0.707956 -0.566682 -0.408787 -0.234272 -0.0431358 0.16462 0.388997 0.629994 0.887612 1.16185 1.45271 1.76019 -1.23981 -1.22873 -1.20103 -1.15671 -1.09577 -1.01821 -0.924023 -0.81322 -0.685797 -0.541753 -0.38109 -0.203805 -0.00990097 0.200624 0.427769 0.671534 0.931919 1.20892 1.50255 1.8128 -1.23981 -1.22596 -1.19549 -1.1484 -1.08469 -1.00436 -0.907408 -0.793838 -0.663649 -0.516841 -0.353413 -0.173367 0.0232972 0.23658 0.466482 0.713001 0.976139 1.25589 1.55227 1.86526 -1.23981 -1.22319 -1.18995 -1.14009 -1.07361 -0.990516 -0.890802 -0.774471 -0.641523 -0.491959 -0.32578 -0.142986 0.0564219 0.272444 0.505078 0.754326 1.02018 1.30266 1.60174 1.91743 -1.23981 -1.22042 -1.18441 -1.13178 -1.06254 -0.976682 -0.87421 -0.755125 -0.619429 -0.467124 -0.29821 -0.112689 0.0894367 0.308167 0.5435 0.795435 1.06397 1.3491 1.65084 1.96916 -1.23981 -1.21765 -1.17887 -1.12348 -1.05147 -0.962859 -0.857636 -0.735808 -0.597379 -0.44235 -0.270725 -0.0825057 0.122305 0.343704 0.58169 0.836259 1.10741 1.39514 1.69944 2.02032 -1.23981 -1.21488 -1.17334 -1.11518 -1.04041 -0.949049 -0.841085 -0.716528 -0.575383 -0.417654 -0.243346 -0.0524629 0.15499 0.37901 0.61959 0.876727 1.15042 1.44065 1.74744 2.07076 -1.23981 -1.21211 -1.1678 -1.10688 -1.02936 -0.935254 -0.824562 -0.697292 -0.553453 -0.393051 -0.216094 -0.0225888 0.187457 0.414037 0.657143 0.916769 1.19291 1.48555 1.7947 2.12033 -1.23981 -1.20934 -1.16226 -1.09859 -1.01832 -0.921479 -0.80807 -0.678106 -0.531598 -0.368555 -0.18899 0.00708869 0.219669 0.448741 0.694293 0.956316 1.2348 1.52973 1.84111 2.16891 -1.23981 -1.20657 -1.15673 -1.0903 -1.00729 -0.907724 -0.791615 -0.658979 -0.509829 -0.344183 -0.162054 0.0365421 0.25159 0.483076 0.730984 0.9953 1.27601 1.5731 1.88655 2.21636 -1.23981 -1.2038 -1.1512 -1.08201 -0.996271 -0.893994 -0.775202 -0.639917 -0.488159 -0.319949 -0.135308 0.0657442 0.283186 0.516998 0.767161 1.03365 1.31646 1.61555 1.93092 2.26254 -1.23981 -1.20104 -1.14567 -1.07373 -0.985266 -0.88029 -0.758834 -0.620927 -0.466596 -0.295868 -0.108771 0.0946676 0.314421 0.550464 0.802768 1.07131 1.35606 1.657 1.9741 2.30733 -1.23981 -1.19827 -1.14014 -1.06546 -0.974275 -0.866615 -0.742516 -0.602017 -0.445151 -0.271955 -0.0824648 0.123286 0.345262 0.583429 0.837754 1.1082 1.39475 1.69735 2.01598 2.35061 -1.23981 -1.1955 -1.13461 -1.0572 -0.963301 -0.852971 -0.726254 -0.583193 -0.423836 -0.248226 -0.0564089 0.151572 0.375673 0.615851 0.872065 1.14427 1.43243 1.73651 2.05646 2.39225 -1.23981 -1.19273 -1.12909 -1.04894 -0.952344 -0.839363 -0.71005 -0.564463 -0.40266 -0.224695 -0.0306234 0.1795 0.405621 0.647688 0.905649 1.17945 1.46905 1.7744 2.09544 2.43214 -1.23981 -1.18996 -1.12356 -1.04069 -0.941407 -0.825791 -0.69391 -0.545835 -0.381634 -0.201376 -0.00512797 0.207044 0.435074 0.678899 0.938457 1.21369 1.50453 1.81093 2.13283 2.47017 -1.23981 -1.18719 -1.11804 -1.03245 -0.93049 -0.812258 -0.677838 -0.527313 -0.360768 -0.178284 0.0200577 0.234178 0.463998 0.709443 0.970438 1.24691 1.53879 1.84602 2.16852 2.50623 -1.23981 -1.18443 -1.11253 -1.02421 -0.919594 -0.798768 -0.661839 -0.508907 -0.340073 -0.155434 0.0449143 0.260877 0.492362 0.73928 1.00154 1.27907 1.57178 1.87959 2.20243 2.54023 -1.23981 -1.18166 -1.10701 -1.01599 -0.908721 -0.785323 -0.645917 -0.490623 -0.319558 -0.132839 0.0694228 0.287116 0.520134 0.768372 1.03173 1.31011 1.60342 1.91157 2.23448 2.57207 -1.23981 -1.17889 -1.1015 -1.00778 -0.897873 -0.771925 -0.630076 -0.472467 -0.299234 -0.110514 0.0935643 0.312872 0.547284 0.796682 1.06095 1.33998 1.63366 1.94189 2.26459 2.60166 </DataArray> 
</PointData> 
<Points> 
<DataArray type="Float32" NumberOfComponents="3"> 
0 0 0 0.0526316 0 0 0.105263 0 0 0.157895 0 0 0.210526 0 0 0.263158 0 0 0.315789 0 0 0.368421 0 0 0.421053 0 0 0.473684 0 0 0.526316 0 0 0.578947 0 0 0.631579 0 0 0.684211 0 0 0.736842 0 0 0.789474 0 0 0.842105 0 0 0.894737 0 0 0.947368 0 0 1 0 0 0 0.0526316 0 0.0526316 0.0526316 0 0.105263 0.0526316 0 0.157895 0.0526316 0 0.210526 0.0526316 0 0.263158 0.0526316 0 0.315789 0.0526316 0 0.368421 0.0526316 0 0.421053 0.0526316 0 0.473684 0.0526316 0 0.526316 0.0526316 0 0.578947 0.0526316 0 0.631579 0.0526316 0 0.684211 0.0526316 0 0.736842 0.0526316 0 0.789474 0.0526316 0 0.842105 0.0526316 0 0.894737 0.0526316 0 0.947368 0.0526316 0 1 0.0526316 0 0 0.105263 0 0.0526316 0.105263 0 0.105263 0.105263 0 0.157895 0.105263 0 0.210526 0.105263 0 0.263158 0.105263 0 0.315789 0.105263 0 0.368421 0.105263 0 0.421053 0.105263 0 0.473684 0.105263 0 0.526316 0.105263 0 0.578947 0.105263 0 0.631579 0.105263 0 0.684211 0.105263 0 0.736842 0.105263 0 0.789474 0.105263 0 0.842105 0.105263 0 0.894737 0.105263 0 0.947368 0.105263 0 1 0.105263 0 0 0.157895 0 0.0526316 0.157895 0 0.105263 0.157895 0 0.157895 0.157895 0 0.210526 0.157895 0 0.263158 0.157895 0 0.315789 0.157895 0 0.368421 0.157895 0 0.421053 0.157895 0 0.473684 0.157895 0 0.526316 0.157895 0 0.578947 0.157895 0 0.631579 0.157895 0 0.684211 0.157895 0 0.736842 0.157895 0 0.789474 0.157895 0 0.842105 0.157895 0 0.894737 0.157895 0 0.947368 0.157895 0 1 0.157895 0 0 0.210526 0 0.0526316 0.210526 0 0.105263 0.210526 0 0.157895 0.210526 0 0.210526 0.210526 0 0.263158 0.210526 0 0.315789 0.210526 0 0.368421 0.210526 0 0.421053 0.210526 0 0.473684 0.210526 0 0.526316 0.210526 0 0.578947 0.210526 0 0.631579 0.210526 0 0.684211 0.210526 0 0.736842 0.210526 0 0.789474 0.210526 0 0.842105 0.210526 0 0.894737 0.210526 0 0.947368 0.210526 0 1 0.210526 0 0 0.263158 0 0.0526316 0.263158 0 0.105263 0.263158 0 0.157895 0.263158 0 0.210526 0.263158 0 0.263158 0.263158 0 0.315789 0.263158 0 0.368421 0.263158 0 0.421053 0.263158 0 0.473684 0.263158 0 0.526316 0.263158 0 0.578947 0.263158 0 0.631579 0.263158 0 0.684211 0.263158 0 0.736842 0.263158 0 0.789474 0.263158 0 0.842105 0.263158 0 0.894737 0.263158 0 0.947368 0.263158 0 1 0.263158 0 0 0.315789 0 0.0526316 0.315789 0 0.105263 0.315789 0 0.157895 0.315789 0 0.210526 0.315789 0 0.263158 0.315789 0 0.315789 0.315789 0 0.368421 0.315789 0 0.421053 0.315789 0 0.473684 0.315789 0 0.526316 0.315789 0 0.578947 0.315789 0 0.631579 0.315789 0 0.684211 0.315789 0 0.736842 0.315789 0 0.789474 0.315789 0 0.842105 0.315789 0 0.894737 0.315789 0 0.947368 0.315789 0 1 0.315789 0 0 0.368421 0 0.0526316 0.368421 0 0.105263 0.368421 0 0.157895 0.368421 0 0.210526 0.368421 0 0.263158 0.368421 0 0.315789 0.368421 0 0.368421 0.368421 0 0.421053 0.368421 0 0.473684 0.368421 0 0.526316 0.368421 0 0.578947 0.368421 0 0.631579 0.368421 0 0.684211 0.368421 0 0.736842 0.368421 0 0.789474 0.368421 0 0.842105 0.368421 0 0.894737 0.368421 0 0.947368 0.368421 0 1 0.368421 0 0 0.421053 0 0.0526316 0.421053 0 0.105263 0.421053 0 0.157895 0.421053 0 0.210526 0.421053 0 0.263158 0.421053 0 0.315789 0.421053 0 0.368421 0.421053 0 0.421053 0.421053 0 0.473684 0.421053 0 0.526316 0.421053 0 0.578947 0.421053 0 0.631579 0.421053 0 0.684211 0.421053 0 0.736842 0.421053 0 0.789474 0.421053 0 0.842105 0.421053 0 0.894737 0.421053 0 0.947368 0.421053 0 1 0.421053 0 0 0.473684 0 0.0526316 0.473684 0 0.105263 0.473684 0 0.157895 0.473684 0 0.210526 0.473684 0 0.263158 0.473684 0 0.315789 0.473684 0 0.368421 0.473684 0 0.421053 0.473684 0 0.473684 0.473684 0 0.526316 0.473684 0 0.578947 0.473684 0 0.631579 0.473684 0 0.684211 0.473684 0 0.736842 0.473684 0 0.789474 0.473684 0 0.842105 0.473684 0 0.894737 0.473684 0 0.947368 0.473684 0 1 0.473684 0 0 0.526316 0 0.0526316 0.526316 0 0.105263 0.526316 0 0.157895 0.526316 0 0.210526 0.526316 0 0.263158 0.526316 0 0.315789 0.526316 0 0.368421 0.526316 0 0.421053 0.526316 0 0.473684 0.526316 0 0.526316 0.526316 0 0.578947 0.526316 0 0.631579 0.526316 0 0.684211 0.526316 0 0.736842 0.526316 0 0.789474 0.526316 0 0.842105 0.526316 0 0.894737 0.526316 0 0.947368 0.526316 0 1 0.526316 0 0 0.578947 0 0.0526316 0.578947 0 0.105263 0.578947 0 0.157895 0.578947 0 0.210526 0.578947 0 0.263158 0.578947 0 0.315789 0.578947 0 0.368421 0.578947 0 0.421053 0.578947 0 0.473684 0.578947 0 0.526316 0.578947 0 0.578947 0.578947 0 0.631579 0.578947 0 0.684211 0.578947 0 0.736842 0.578947 0 0.789474 0.578947 0 0.842105 0.578947 0 0.894737 0.578947 0 0.947368 0.578947 0 1 0.578947 0 0 0.631579 0 0.0526316 0.631579 0 0.105263 0.631579 0 0.157895 0.631579 0 0.210526 0.631579 0 0.263158 0.631579 0 0.315789 0.631579 0 0.368421 0.631579 0 0.421053 0.631579 0 0.473684 0.631579 0 0.526316 0.631579 0 0.578947 0.631579 0 0.631579 0.631579 0 0.684211 0.631579 0 0.736842 0.631579 0 0.789474 0.631579 0 0.842105 0.631579 0 0.894737 0.631579 0 0.947368 0.631579 0 1 0.631579 0 0 0.684211 0 0.0526316 0.684211 0 0.105263 0.684211 0 0.157895 0.684211 0 0.210526 0.684211 0 0.263158 0.684211 0 0.315789 0.684211 0 0.368421 0.684211 0 0.421053 0.684211 0 0.473684 0.684211 0 0.526316 0.684211 0 0.578947 0.684211 0 0.631579 0.684211 0 0.684211 0.684211 0 0.736842 0.684211 0 0.789474 0.684211 0 0.842105 0.684211 0 0.894737 0.684211 0 0.947368 0.684211 0 1 0.684211 0 0 0.736842 0 0.0526316 0.736842 0 0.105263 0.736842 0 0.157895 0.736842 0 0.210526 0.736842 0 0.263158 0.736842 0 0.315789 0.736842 0 0.368421 0.736842 0 0.421053 0.736842 0 0.473684 0.736842 0 0.526316 0.736842 0 0.578947 0.736842 0 0.631579 0.736842 0 0.684211 0.736842 0 0.736842 0.736842 0 0.789474 0.736842 0 0.842105 0.736842 0 0.894737 0.736842 0 0.947368 0.736842 0 1 0.736842 0 0 0.789474 0 0.0526316 0.789474 0 0.105263 0.789474 0 0.157895 0.789474 0 0.210526 0.789474 0 0.263158 0.789474 0 0.315789 0.789474 0 0.368421 0.789474 0 0.421053 0.789474 0 0.473684 0.789474 0 0.526316 0.789474 0 0.578947 0.789474 0 0.631579 0.789474 0 0.684211 0.789474 0 0.736842 0.789474 0 0.789474 0.789474 0 0.842105 0.789474 0 0.894737 0.789474 0 0.947368 0.789474 0 1 0.789474 0 0 0.842105 0 0.0526316 0.842105 0 0.105263 0.842105 0 0.157895 0.842105 0 0.210526 0.842105 0 0.263158 0.842105 0 0.315789 0.842105 0 0.368421 0.842105 0 0.421053 0.842105 0 0.473684 0.842105 0 0.526316 0.842105 0 0.578947 0.842105 0 0.631579 0.842105 0 0.684211 0.842105 0 0.736842 0.842105 0 0.789474 0.842105 0 0.842105 0.842105 0 0.894737 0.842105 0 0.947368 0.842105 0 1 0.842105 0 0 0.894737 0 0.0526316 0.894737 0 0.105263 0.894737 0 0.157895 0.894737 0 0.210526 0.894737 0 0.263158 0.894737 0 0.315789 0.894737 0 0.368421 0.894737 0 0.421053 0.894737 0 0.473684 0.894737 0 0.526316 0.894737 0 0.578947 0.894737 0 0.631579 0.894737 0 0.684211 0.894737 0 0.736842 0.894737 0 0.789474 0.894737 0 0.842105 0.894737 0 0.894737 0.894737 0 0.947368 0.894737 0 1 0.894737 0 0 0.947368 0 0.0526316 0.947368 0 0.105263 0.947368 0 0.157895 0.947368 0 0.210526 0.947368 0 0.263158 0.947368 0 0.315789 0.947368 0 0.368421 0.947368 0 0.421053 0.947368 0 0.473684 0.947368 0 0.526316 0.947368 0 0.578947 0.947368 0 0.631579 0.947368 0 0.684211 0.947368 0 0.736842 0.947368 0 0.789474 0.947368 0 0.842105 0.947368 0 0.894737 0.947368 0 0.947368 0.947368 0 1 0.947368 0 0 1 0 0.0526316 1 0 0.105263 1 0 0.157895 1 0 0.210526 1 0 0.263158 1 0 0.315789 1 0 0.368421 1 0 0.421053 1 0 0.473684 1 0 0.526316 1 0 0.578947 1 0 0.631579 1 0 0.684211 1 0 0.736842 1 0 0.789474 1 0 0.842105 1 0 0.894737 1 0 0.947368 1 0 1 1 0 
</DataArray>
</Points> 
</Piece> 
</StructuredGrid> 
</VTKFile> 
