<?xml version="1.0"?> 
<VTKFile type="StructuredGrid" version="0.1"> 
<StructuredGrid WholeExtent="0 19 0 19 0 0"> 
<Piece Extent="0 19 0 19 0 0"> 
<PointData>
<DataArray type="Float32" Name="press" format="ascii" NumberOfComponents="1"> 
-0.555556 -0.502924 -0.450292 -0.397661 -0.345029 -0.292398 -0.239766 -0.187135 -0.134503 -0.0818713 -0.0292398 0.0233918 0.0760234 0.128655 0.181287 0.233918 0.28655 0.339181 0.391813 0.444444 -0.555556 -0.502924 -0.450292 -0.397661 -0.345029 -0.292398 -0.239766 -0.187135 -0.134503 -0.0818713 -0.0292398 0.0233918 0.0760234 0.128655 0.181287 0.233918 0.28655 0.339181 0.391813 0.444444 -0.555556 -0.502924 -0.450292 -0.397661 -0.345029 -0.292398 -0.239766 -0.187135 -0.134503 -0.0818713 -0.0292398 0.0233918 0.0760234 0.128655 0.181287 0.233918 0.28655 0.339181 0.391813 0.444444 -0.555556 -0.502924 -0.450292 -0.397661 -0.345029 -0.292398 -0.239766 -0.187135 -0.134503 -0.0818713 -0.0292398 0.0233918 0.0760234 0.128655 0.181287 0.233918 0.28655 0.339181 0.391813 0.444444 -0.555556 -0.502924 -0.450292 -0.397661 -0.345029 -0.292398 -0.239766 -0.187135 -0.134503 -0.0818713 -0.0292398 0.0233918 0.0760234 0.128655 0.181287 0.233918 0.28655 0.339181 0.391813 0.444444 -0.555556 -0.502924 -0.450292 -0.397661 -0.345029 -0.292398 -0.239766 -0.187135 -0.134503 -0.0818713 -0.0292398 0.0233918 0.0760234 0.128655 0.181287 0.233918 0.28655 0.339181 0.391813 0.444444 -0.555556 -0.502924 -0.450292 -0.397661 -0.345029 -0.292398 -0.239766 -0.187135 -0.134503 -0.0818713 -0.0292398 0.0233918 0.0760234 0.128655 0.181287 0.233918 0.28655 0.339181 0.391813 0.444444 -0.555556 -0.502924 -0.450292 -0.397661 -0.345029 -0.292398 -0.239766 -0.187135 -0.134503 -0.0818713 -0.0292398 0.0233918 0.0760234 0.128655 0.181287 0.233918 0.28655 0.339181 0.391813 0.444444 -0.555556 -0.502924 -0.450292 -0.397661 -0.345029 -0.292398 -0.239766 -0.187135 -0.134503 -0.0818713 -0.0292398 0.0233918 0.0760234 0.128655 0.181287 0.233918 0.28655 0.339181 0.391813 0.444444 -0.555556 -0.502924 -0.450292 -0.397661 -0.345029 -0.292398 -0.239766 -0.187135 -0.134503 -0.0818713 -0.0292398 0.0233918 0.0760234 0.128655 0.181287 0.233918 0.28655 0.339181 0.391813 0.444444 -0.555556 -0.502924 -0.450292 -0.397661 -0.345029 -0.292398 -0.239766 -0.187135 -0.134503 -0.0818713 -0.0292398 0.0233918 0.0760234 0.128655 0.181287 0.233918 0.28655 0.339181 0.391813 0.444444 -0.555556 -0.502924 -0.450292 -0.397661 -0.345029 -0.292398 -0.239766 -0.187135 -0.134503 -0.0818713 -0.0292398 0.0233918 0.0760234 0.128655 0.181287 0.233918 0.28655 0.339181 0.391813 0.444444 -0.555556 -0.502924 -0.450292 -0.397661 -0.345029 -0.292398 -0.239766 -0.187135 -0.134503 -0.0818713 -0.0292398 0.0233918 0.0760234 0.128655 0.181287 0.233918 0.28655 0.339181 0.391813 0.444444 -0.555556 -0.502924 -0.450292 -0.397661 -0.345029 -0.292398 -0.239766 -0.187135 -0.134503 -0.0818713 -0.0292398 0.0233918 0.0760234 0.128655 0.181287 0.233918 0.28655 0.339181 0.391813 0.444444 -0.555556 -0.502924 -0.450292 -0.397661 -0.345029 -0.292398 -0.239766 -0.187135 -0.134503 -0.0818713 -0.0292398 0.0233918 0.0760234 0.128655 0.181287 0.233918 0.28655 0.339181 0.391813 0.444444 -0.555556 -0.502924 -0.450292 -0.397661 -0.345029 -0.292398 -0.239766 -0.187135 -0.134503 -0.0818713 -0.0292398 0.0233918 0.0760234 0.128655 0.181287 0.233918 0.28655 0.339181 0.391813 0.444444 -0.555556 -0.502924 -0.450292 -0.397661 -0.345029 -0.292398 -0.239766 -0.187135 -0.134503 -0.0818713 -0.0292398 0.0233918 0.0760234 0.128655 0.181287 0.233918 0.28655 0.339181 0.391813 0.444444 -0.555556 -0.502924 -0.450292 -0.397661 -0.345029 -0.292398 -0.239766 -0.187135 -0.134503 -0.0818713 -0.0292398 0.0233918 0.0760234 0.128655 0.181287 0.233918 0.28655 0.339181 0.391813 0.444444 -0.555556 -0.502924 -0.450292 -0.397661 -0.345029 -0.292398 -0.239766 -0.187135 -0.134503 -0.0818713 -0.0292398 0.0233918 0.0760234 0.128655 0.181287 0.233918 0.28655 0.339181 0.391813 0.444444 -0.555555 -0.502924 -0.450292 -0.397661 -0.345029 -0.292398 -0.239766 -0.187135 -0.134503 -0.0818713 -0.0292398 0.0233918 0.0760234 0.128655 0.181287 0.233918 0.28655 0.339181 0.391813 0.444445 </DataArray> 
</PointData> 
<Points> 
<DataArray type="Float32" NumberOfComponents="3"> 
0 0 0 0.0526316 0 0 0.105263 0 0 0.157895 0 0 0.210526 0 0 0.263158 0 0 0.315789 0 0 0.368421 0 0 0.421053 0 0 0.473684 0 0 0.526316 0 0 0.578947 0 0 0.631579 0 0 0.684211 0 0 0.736842 0 0 0.789474 0 0 0.842105 0 0 0.894737 0 0 0.947368 0 0 1 0 0 0 0.0526316 0 0.0526316 0.0554017 0 0.105263 0.0581717 0 0.157895 0.0609418 0 0.210526 0.0637119 0 0.263158 0.066482 0 0.315789 0.0692521 0 0.368421 0.0720222 0 0.421053 0.0747922 0 0.473684 0.0775623 0 0.526316 0.0803324 0 0.578947 0.0831025 0 0.631579 0.0858726 0 0.684211 0.0886427 0 0.736842 0.0914127 0 0.789474 0.0941828 0 0.842105 0.0969529 0 0.894737 0.099723 0 0.947368 0.102493 0 1 0.105263 0 0 0.105263 0 0.0526316 0.110803 0 0.105263 0.116343 0 0.157895 0.121884 0 0.210526 0.127424 0 0.263158 0.132964 0 0.315789 0.138504 0 0.368421 0.144044 0 0.421053 0.149584 0 0.473684 0.155125 0 0.526316 0.160665 0 0.578947 0.166205 0 0.631579 0.171745 0 0.684211 0.177285 0 0.736842 0.182825 0 0.789474 0.188366 0 0.842105 0.193906 0 0.894737 0.199446 0 0.947368 0.204986 0 1 0.210526 0 0 0.157895 0 0.0526316 0.166205 0 0.105263 0.174515 0 0.157895 0.182825 0 0.210526 0.191136 0 0.263158 0.199446 0 0.315789 0.207756 0 0.368421 0.216066 0 0.421053 0.224377 0 0.473684 0.232687 0 0.526316 0.240997 0 0.578947 0.249307 0 0.631579 0.257618 0 0.684211 0.265928 0 0.736842 0.274238 0 0.789474 0.282548 0 0.842105 0.290859 0 0.894737 0.299169 0 0.947368 0.307479 0 1 0.315789 0 0 0.210526 0 0.0526316 0.221607 0 0.105263 0.232687 0 0.157895 0.243767 0 0.210526 0.254848 0 0.263158 0.265928 0 0.315789 0.277008 0 0.368421 0.288089 0 0.421053 0.299169 0 0.473684 0.310249 0 0.526316 0.32133 0 0.578947 0.33241 0 0.631579 0.34349 0 0.684211 0.354571 0 0.736842 0.365651 0 0.789474 0.376731 0 0.842105 0.387812 0 0.894737 0.398892 0 0.947368 0.409972 0 1 0.421053 0 0 0.263158 0 0.0526316 0.277008 0 0.105263 0.290859 0 0.157895 0.304709 0 0.210526 0.31856 0 0.263158 0.33241 0 0.315789 0.34626 0 0.368421 0.360111 0 0.421053 0.373961 0 0.473684 0.387812 0 0.526316 0.401662 0 0.578947 0.415512 0 0.631579 0.429363 0 0.684211 0.443213 0 0.736842 0.457064 0 0.789474 0.470914 0 0.842105 0.484765 0 0.894737 0.498615 0 0.947368 0.512465 0 1 0.526316 0 0 0.315789 0 0.0526316 0.33241 0 0.105263 0.34903 0 0.157895 0.365651 0 0.210526 0.382271 0 0.263158 0.398892 0 0.315789 0.415512 0 0.368421 0.432133 0 0.421053 0.448753 0 0.473684 0.465374 0 0.526316 0.481994 0 0.578947 0.498615 0 0.631579 0.515235 0 0.684211 0.531856 0 0.736842 0.548476 0 0.789474 0.565097 0 0.842105 0.581717 0 0.894737 0.598338 0 0.947368 0.614958 0 1 0.631579 0 0 0.368421 0 0.0526316 0.387812 0 0.105263 0.407202 0 0.157895 0.426593 0 0.210526 0.445983 0 0.263158 0.465374 0 0.315789 0.484765 0 0.368421 0.504155 0 0.421053 0.523546 0 0.473684 0.542936 0 0.526316 0.562327 0 0.578947 0.581717 0 0.631579 0.601108 0 0.684211 0.620499 0 0.736842 0.639889 0 0.789474 0.65928 0 0.842105 0.67867 0 0.894737 0.698061 0 0.947368 0.717452 0 1 0.736842 0 0 0.421053 0 0.0526316 0.443213 0 0.105263 0.465374 0 0.157895 0.487535 0 0.210526 0.509695 0 0.263158 0.531856 0 0.315789 0.554017 0 0.368421 0.576177 0 0.421053 0.598338 0 0.473684 0.620499 0 0.526316 0.642659 0 0.578947 0.66482 0 0.631579 0.686981 0 0.684211 0.709141 0 0.736842 0.731302 0 0.789474 0.753463 0 0.842105 0.775623 0 0.894737 0.797784 0 0.947368 0.819945 0 1 0.842105 0 0 0.473684 0 0.0526316 0.498615 0 0.105263 0.523546 0 0.157895 0.548476 0 0.210526 0.573407 0 0.263158 0.598338 0 0.315789 0.623269 0 0.368421 0.648199 0 0.421053 0.67313 0 0.473684 0.698061 0 0.526316 0.722992 0 0.578947 0.747922 0 0.631579 0.772853 0 0.684211 0.797784 0 0.736842 0.822715 0 0.789474 0.847645 0 0.842105 0.872576 0 0.894737 0.897507 0 0.947368 0.922438 0 1 0.947368 0 0 0.526316 0 0.0526316 0.554017 0 0.105263 0.581717 0 0.157895 0.609418 0 0.210526 0.637119 0 0.263158 0.66482 0 0.315789 0.692521 0 0.368421 0.720222 0 0.421053 0.747922 0 0.473684 0.775623 0 0.526316 0.803324 0 0.578947 0.831025 0 0.631579 0.858726 0 0.684211 0.886427 0 0.736842 0.914127 0 0.789474 0.941828 0 0.842105 0.969529 0 0.894737 0.99723 0 0.947368 1.02493 0 1 1.05263 0 0 0.578947 0 0.0526316 0.609418 0 0.105263 0.639889 0 0.157895 0.67036 0 0.210526 0.700831 0 0.263158 0.731302 0 0.315789 0.761773 0 0.368421 0.792244 0 0.421053 0.822715 0 0.473684 0.853186 0 0.526316 0.883657 0 0.578947 0.914127 0 0.631579 0.944598 0 0.684211 0.975069 0 0.736842 1.00554 0 0.789474 1.03601 0 0.842105 1.06648 0 0.894737 1.09695 0 0.947368 1.12742 0 1 1.15789 0 0 0.631579 0 0.0526316 0.66482 0 0.105263 0.698061 0 0.157895 0.731302 0 0.210526 0.764543 0 0.263158 0.797784 0 0.315789 0.831025 0 0.368421 0.864266 0 0.421053 0.897507 0 0.473684 0.930748 0 0.526316 0.963989 0 0.578947 0.99723 0 0.631579 1.03047 0 0.684211 1.06371 0 0.736842 1.09695 0 0.789474 1.13019 0 0.842105 1.16343 0 0.894737 1.19668 0 0.947368 1.22992 0 1 1.26316 0 0 0.684211 0 0.0526316 0.720222 0 0.105263 0.756233 0 0.157895 0.792244 0 0.210526 0.828255 0 0.263158 0.864266 0 0.315789 0.900277 0 0.368421 0.936288 0 0.421053 0.972299 0 0.473684 1.00831 0 0.526316 1.04432 0 0.578947 1.08033 0 0.631579 1.11634 0 0.684211 1.15235 0 0.736842 1.18837 0 0.789474 1.22438 0 0.842105 1.26039 0 0.894737 1.2964 0 0.947368 1.33241 0 1 1.36842 0 0 0.736842 0 0.0526316 0.775623 0 0.105263 0.814404 0 0.157895 0.853186 0 0.210526 0.891967 0 0.263158 0.930748 0 0.315789 0.969529 0 0.368421 1.00831 0 0.421053 1.04709 0 0.473684 1.08587 0 0.526316 1.12465 0 0.578947 1.16343 0 0.631579 1.20222 0 0.684211 1.241 0 0.736842 1.27978 0 0.789474 1.31856 0 0.842105 1.35734 0 0.894737 1.39612 0 0.947368 1.4349 0 1 1.47368 0 0 0.789474 0 0.0526316 0.831025 0 0.105263 0.872576 0 0.157895 0.914127 0 0.210526 0.955679 0 0.263158 0.99723 0 0.315789 1.03878 0 0.368421 1.08033 0 0.421053 1.12188 0 0.473684 1.16343 0 0.526316 1.20499 0 0.578947 1.24654 0 0.631579 1.28809 0 0.684211 1.32964 0 0.736842 1.37119 0 0.789474 1.41274 0 0.842105 1.45429 0 0.894737 1.49584 0 0.947368 1.5374 0 1 1.57895 0 0 0.842105 0 0.0526316 0.886427 0 0.105263 0.930748 0 0.157895 0.975069 0 0.210526 1.01939 0 0.263158 1.06371 0 0.315789 1.10803 0 0.368421 1.15235 0 0.421053 1.19668 0 0.473684 1.241 0 0.526316 1.28532 0 0.578947 1.32964 0 0.631579 1.37396 0 0.684211 1.41828 0 0.736842 1.4626 0 0.789474 1.50693 0 0.842105 1.55125 0 0.894737 1.59557 0 0.947368 1.63989 0 1 1.68421 0 0 0.894737 0 0.0526316 0.941828 0 0.105263 0.98892 0 0.157895 1.03601 0 0.210526 1.0831 0 0.263158 1.13019 0 0.315789 1.17729 0 0.368421 1.22438 0 0.421053 1.27147 0 0.473684 1.31856 0 0.526316 1.36565 0 0.578947 1.41274 0 0.631579 1.45983 0 0.684211 1.50693 0 0.736842 1.55402 0 0.789474 1.60111 0 0.842105 1.6482 0 0.894737 1.69529 0 0.947368 1.74238 0 1 1.78947 0 0 0.947368 0 0.0526316 0.99723 0 0.105263 1.04709 0 0.157895 1.09695 0 0.210526 1.14681 0 0.263158 1.19668 0 0.315789 1.24654 0 0.368421 1.2964 0 0.421053 1.34626 0 0.473684 1.39612 0 0.526316 1.44598 0 0.578947 1.49584 0 0.631579 1.54571 0 0.684211 1.59557 0 0.736842 1.64543 0 0.789474 1.69529 0 0.842105 1.74515 0 0.894737 1.79501 0 0.947368 1.84488 0 1 1.89474 0 0 1 0 0.0526316 1.05263 0 0.105263 1.10526 0 0.157895 1.15789 0 0.210526 1.21053 0 0.263158 1.26316 0 0.315789 1.31579 0 0.368421 1.36842 0 0.421053 1.42105 0 0.473684 1.47368 0 0.526316 1.52632 0 0.578947 1.57895 0 0.631579 1.63158 0 0.684211 1.68421 0 0.736842 1.73684 0 0.789474 1.78947 0 0.842105 1.84211 0 0.894737 1.89474 0 0.947368 1.94737 0 1 2 0 
</DataArray>
</Points> 
</Piece> 
</StructuredGrid> 
</VTKFile> 
