<?xml version="1.0"?> 
<VTKFile type="StructuredGrid" version="0.1"> 
<StructuredGrid WholeExtent="0 127 0 127 0 0"> 
<Piece Extent="0 127 0 127 0 0"> 
<PointData>
<DataArray type="Float32" Name="velocity" format="ascii" NumberOfComponents="3"> 
-0.5 0 0 -0.857436 0 0 -1.04533 0 0 -1.10549 0 0 -1.07974 0 0 -1.0099 0 0 -0.937774 0 0 -0.905182 0 0 -0.953598 0 0 -1.02149 0 0 -1.04804 0 0 -1.0448 0 0 -1.02334 0 0 -0.995237 0 0 -0.972045 0 0 -0.965332 0 0 -0.986215 0 0 -1.00944 0 0 -1.018 0 0 -1.01608 0 0 -1.00787 0 0 -0.997575 0 0 -0.989378 0 0 -0.987475 0 0 -0.995688 0 0 -1.00379 0 0 -1.00663 0 0 -1.00574 0 0 -1.00265 0 0 -0.998888 0 0 -0.995992 0 0 -0.995491 0 0 -0.998676 0 0 -1.0015 0 0 -1.00244 0 0 -1.00204 0 0 -1.00088 0 0 -0.999514 0 0 -0.998494 0 0 -0.998383 0 0 -0.999602 0 0 -1.00058 0 0 -1.00089 0 0 -1.00073 0 0 -1.0003 0 0 -0.999798 0 0 -0.99944 0 0 -0.999422 0 0 -0.999878 0 0 -1.00022 0 0 -1.00032 0 0 -1.00026 0 0 -1.00011 0 0 -0.99993 0 0 -0.999801 0 0 -0.999793 0 0 -0.999944 0 0 -1.00006 0 0 -1.00011 0 0 -1.0001 0 0 -1.00006 0 0 -1.00001 0 0 -0.999955 0 0 -0.99992 0 0 -0.99992 0 0 -0.999955 0 0 -1.00001 0 0 -1.00006 0 0 -1.0001 0 0 -1.00011 0 0 -1.00006 0 0 -0.999944 0 0 -0.999793 0 0 -0.999801 0 0 -0.99993 0 0 -1.00011 0 0 -1.00026 0 0 -1.00032 0 0 -1.00022 0 0 -0.999878 0 0 -0.999422 0 0 -0.99944 0 0 -0.999798 0 0 -1.0003 0 0 -1.00073 0 0 -1.00089 0 0 -1.00058 0 0 -0.999602 0 0 -0.998383 0 0 -0.998494 0 0 -0.999514 0 0 -1.00088 0 0 -1.00204 0 0 -1.00244 0 0 -1.0015 0 0 -0.998676 0 0 -0.995491 0 0 -0.995992 0 0 -0.998888 0 0 -1.00265 0 0 -1.00574 0 0 -1.00663 0 0 -1.00379 0 0 -0.995688 0 0 -0.987475 0 0 -0.989378 0 0 -0.997575 0 0 -1.00787 0 0 -1.01608 0 0 -1.018 0 0 -1.00944 0 0 -0.986215 0 0 -0.965332 0 0 -0.972045 0 0 -0.995237 0 0 -1.02334 0 0 -1.0448 0 0 -1.04804 0 0 -1.02149 0 0 -0.953598 0 0 -0.905182 0 0 -0.937774 0 0 -1.0099 0 0 -1.07974 0 0 -1.10549 0 0 -1.04533 0 0 -0.857436 0 0 -0.5 0 0 -0.142564 0 0 -0.295697 0.147162 0 -0.408838 0.204467 0 -0.490938 0.195186 0 -0.550942 0.142591 0 -0.597799 0.0699524 0 -0.640457 0.000542527 0 -0.687863 -0.0423674 0 -0.748865 -0.0356699 0 -0.802898 -0.00702985 0 -0.833549 0.0116142 0 -0.846724 0.0220769 0 -0.84833 0.0261729 0 -0.844273 0.0257169 0 -0.840461 0.0225237 0 -0.842799 0.0184078 0 -0.857005 0.0151485 0 -0.873289 0.0115706 0 -0.884315 0.00681293 0 -0.891423 0.00161227 0 -0.895953 -0.00329471 0 -0.899243 -0.00717131 0 -0.902634 -0.00928082 0 -0.907463 -0.00888653 0 -0.914941 -0.0053396 0 -0.921428 -0.00131626 0 -0.925265 0.00169437 0 -0.927168 0.00378196 0 -0.927851 0.00503618 0 -0.92803 0.00554669 0 -0.92842 0.00540315 0 -0.929738 0.00469522 0 -0.932605 0.00352549 0 -0.935543 0.00226105 0 -0.937907 0.00108399 0 -0.939834 5.76607e-05 0 -0.941462 -0.000754593 0 -0.942928 -0.00128943 0 -0.944368 -0.00148351 0 -0.94592 -0.00127348 0 -0.947679 -0.000627702 0 -0.949153 3.43223e-05 0 -0.950239 0.000562318 0 -0.951036 0.000954289 0 -0.951643 0.00120824 0 -0.952161 0.00132216 0 -0.952687 0.00129407 0 -0.953322 0.00112196 0 -0.954137 0.000816634 0 -0.954924 0.000512662 0 -0.955625 0.000252238 0 -0.95625 4.26111e-05 0 -0.95681 -0.000108971 0 -0.957316 -0.000195261 0 -0.957778 -0.000209008 0 -0.958206 -0.000142965 0 -0.958604 -2.18803e-06 0 -0.958915 0.000121964 0 -0.95914 0.000209014 0 -0.959293 0.00025841 0 -0.959387 0.000269604 0 -0.959436 0.000242046 0 -0.959455 0.000175185 0 -0.959458 6.84726e-05 0 -0.959458 -6.84726e-05 0 -0.959455 -0.000175185 0 -0.959436 -0.000242046 0 -0.959387 -0.000269604 0 -0.959293 -0.00025841 0 -0.95914 -0.000209014 0 -0.958915 -0.000121964 0 -0.958604 2.18803e-06 0 -0.958206 0.000142965 0 -0.957778 0.000209008 0 -0.957316 0.000195261 0 -0.95681 0.000108971 0 -0.95625 -4.26111e-05 0 -0.955625 -0.000252238 0 -0.954924 -0.000512662 0 -0.954137 -0.000816634 0 -0.953322 -0.00112196 0 -0.952687 -0.00129407 0 -0.952161 -0.00132216 0 -0.951643 -0.00120824 0 -0.951036 -0.000954289 0 -0.950239 -0.000562318 0 -0.949153 -3.43223e-05 0 -0.947679 0.000627702 0 -0.94592 0.00127348 0 -0.944368 0.00148351 0 -0.942928 0.00128943 0 -0.941462 0.000754593 0 -0.939834 -5.76607e-05 0 -0.937907 -0.00108399 0 -0.935543 -0.00226105 0 -0.932605 -0.00352549 0 -0.929738 -0.00469522 0 -0.92842 -0.00540315 0 -0.92803 -0.00554669 0 -0.927851 -0.00503618 0 -0.927168 -0.00378196 0 -0.925265 -0.00169437 0 -0.921428 0.00131626 0 -0.914941 0.0053396 0 -0.907463 0.00888653 0 -0.902634 0.00928082 0 -0.899243 0.00717131 0 -0.895953 0.00329471 0 -0.891423 -0.00161227 0 -0.884315 -0.00681293 0 -0.873289 -0.0115706 0 -0.857005 -0.0151485 0 -0.842799 -0.0184078 0 -0.840461 -0.0225237 0 -0.844273 -0.0257169 0 -0.84833 -0.0261729 0 -0.846724 -0.0220769 0 -0.833549 -0.0116142 0 -0.802898 0.00702985 0 -0.748865 0.0356699 0 -0.687863 0.0423674 0 -0.640457 -0.000542527 0 -0.597799 -0.0699524 0 -0.550942 -0.142591 0 -0.490938 -0.195186 0 -0.408838 -0.204467 0 -0.295697 -0.147162 0 -0.142564 0 0 0.0453279 0 0 0.0228319 0.22843 0 -0.0332151 0.321811 0 -0.113671 0.314555 0 -0.209394 0.241076 0 -0.311242 0.135787 0 -0.410074 0.0330988 0 -0.496746 -0.0325747 0 -0.56215 -0.0270562 0 -0.608431 0.010793 0 -0.643349 0.0351554 0 -0.669126 0.0484311 0 -0.687988 0.0530205 0 -0.702157 0.0513236 0 -0.713859 0.0457407 0 -0.725317 0.0386721 0 -0.738722 0.0324738 0 -0.753193 0.0258212 0 -0.767238 0.0177522 0 -0.780698 0.00928496 0 -0.793413 0.00143806 0 -0.805223 -0.00477015 0 -0.815967 -0.00832126 0 -0.825487 -0.00819689 0 -0.833623 -0.00350261 0 -0.840406 0.00196264 0 -0.846063 0.00607094 0 -0.85082 0.00892143 0 -0.8549 0.0106133 0 -0.858525 0.0112456 0 -0.861921 0.0109175 0 -0.865309 0.00972814 0 -0.868904 0.00779957 0 -0.872659 0.00573124 0 -0.876449 0.00381862 0 -0.880203 0.00215039 0 -0.88385 0.000815223 0 -0.887318 -9.81993e-05 0 -0.890535 -0.0005012 0 -0.893432 -0.000305101 0 -0.895944 0.000533265 0 -0.898155 0.00140894 0 -0.900135 0.0021025 0 -0.901918 0.00260723 0 -0.90354 0.00291647 0 -0.905034 0.00302353 0 -0.906438 0.00292171 0 -0.907785 0.00260434 0 -0.90911 0.00208446 0 -0.910412 0.00156697 0 -0.911675 0.00111609 0 -0.91288 0.00074233 0 -0.914011 0.000456197 0 -0.91505 0.000268198 0 -0.91598 0.000188841 0 -0.916785 0.000228636 0 -0.91745 0.000380063 0 -0.917993 0.000509036 0 -0.91843 0.00058509 0 -0.918769 0.000606941 0 -0.91902 0.0005733 0 -0.919194 0.000482883 0 -0.9193 0.000334403 0 -0.919349 0.000126573 0 -0.919349 -0.000126573 0 -0.9193 -0.000334403 0 -0.919194 -0.000482883 0 -0.91902 -0.0005733 0 -0.918769 -0.000606941 0 -0.91843 -0.00058509 0 -0.917993 -0.000509036 0 -0.91745 -0.000380063 0 -0.916785 -0.000228636 0 -0.91598 -0.000188841 0 -0.91505 -0.000268198 0 -0.914011 -0.000456197 0 -0.91288 -0.00074233 0 -0.911675 -0.00111609 0 -0.910412 -0.00156697 0 -0.90911 -0.00208446 0 -0.907785 -0.00260434 0 -0.906438 -0.00292171 0 -0.905034 -0.00302353 0 -0.90354 -0.00291647 0 -0.901918 -0.00260723 0 -0.900135 -0.0021025 0 -0.898155 -0.00140894 0 -0.895944 -0.000533265 0 -0.893432 0.000305101 0 -0.890535 0.0005012 0 -0.887318 9.81993e-05 0 -0.88385 -0.000815223 0 -0.880203 -0.00215039 0 -0.876449 -0.00381862 0 -0.872659 -0.00573124 0 -0.868904 -0.00779957 0 -0.865309 -0.00972814 0 -0.861921 -0.0109175 0 -0.858525 -0.0112456 0 -0.8549 -0.0106133 0 -0.85082 -0.00892143 0 -0.846063 -0.00607094 0 -0.840406 -0.00196264 0 -0.833623 0.00350261 0 -0.825487 0.00819689 0 -0.815967 0.00832126 0 -0.805223 0.00477015 0 -0.793413 -0.00143806 0 -0.780698 -0.00928496 0 -0.767238 -0.0177522 0 -0.753193 -0.0258212 0 -0.738722 -0.0324738 0 -0.725317 -0.0386721 0 -0.713859 -0.0457407 0 -0.702157 -0.0513236 0 -0.687988 -0.0530205 0 -0.669126 -0.0484311 0 -0.643349 -0.0351554 0 -0.608431 -0.010793 0 -0.56215 0.0270562 0 -0.496746 0.0325747 0 -0.410074 -0.0330988 0 -0.311242 -0.135787 0 -0.209394 -0.241076 0 -0.113671 -0.314555 0 -0.0332151 -0.321811 0 0.0228319 -0.22843 0 0.0453279 0 0 0.105492 0 0 0.153881 0.258104 0 0.138967 0.370566 0 0.0765359 0.373604 0 -0.0176249 0.303438 0 -0.127729 0.196285 0 -0.23799 0.0883637 0 -0.332621 0.0158919 0 -0.395919 0.014852 0 -0.438746 0.0475567 0 -0.477497 0.0680172 0 -0.512286 0.0783421 0 -0.543228 0.0806398 0 -0.570438 0.0770187 0 -0.594028 0.0695875 0 -0.614113 0.0604545 0 -0.630847 0.0516941 0 -0.647193 0.0425079 0 -0.664501 0.0323315 0 -0.682137 0.0221285 0 -0.699463 0.0128626 0 -0.715844 0.00549751 0 -0.730646 0.000996975 0 -0.743231 0.000324678 0 -0.753017 0.00432299 0 -0.761466 0.00923903 0 -0.769479 0.0129484 0 -0.77704 0.0155049 0 -0.784131 0.0169624 0 -0.790735 0.0173748 0 -0.796836 0.0167957 0 -0.802417 0.0152791 0 -0.807485 0.0129083 0 -0.812554 0.0103943 0 -0.817743 0.00808522 0 -0.82293 0.00606665 0 -0.827997 0.00442411 0 -0.832823 0.00324314 0 -0.837289 0.00260929 0 -0.841275 0.00260811 0 -0.844685 0.00327943 0 -0.847804 0.00401144 0 -0.850746 0.00457796 0 -0.853513 0.0049663 0 -0.856108 0.00516377 0 -0.858532 0.00515766 0 -0.860789 0.00493529 0 -0.86288 0.00448395 0 -0.864816 0.00381286 0 -0.866678 0.00314544 0 -0.868469 0.00255168 0 -0.870169 0.00204227 0 -0.871758 0.00162789 0 -0.873214 0.0013192 0 -0.874518 0.00112689 0 -0.875649 0.00106163 0 -0.876593 0.00111545 0 -0.877391 0.00114921 0 -0.87806 0.00113067 0 -0.878604 0.00105772 0 -0.879028 0.000928264 0 -0.879339 0.000740217 0 -0.879541 0.00049148 0 -0.879639 0.000179959 0 -0.879639 -0.000179959 0 -0.879541 -0.00049148 0 -0.879339 -0.000740217 0 -0.879028 -0.000928264 0 -0.878604 -0.00105772 0 -0.87806 -0.00113067 0 -0.877391 -0.00114921 0 -0.876593 -0.00111545 0 -0.875649 -0.00106163 0 -0.874518 -0.00112689 0 -0.873214 -0.0013192 0 -0.871758 -0.00162789 0 -0.870169 -0.00204227 0 -0.868469 -0.00255168 0 -0.866678 -0.00314544 0 -0.864816 -0.00381286 0 -0.86288 -0.00448395 0 -0.860789 -0.00493529 0 -0.858532 -0.00515766 0 -0.856108 -0.00516377 0 -0.853513 -0.0049663 0 -0.850746 -0.00457796 0 -0.847804 -0.00401144 0 -0.844685 -0.00327943 0 -0.841275 -0.00260811 0 -0.837289 -0.00260929 0 -0.832823 -0.00324314 0 -0.827997 -0.00442411 0 -0.82293 -0.00606665 0 -0.817743 -0.00808522 0 -0.812554 -0.0103943 0 -0.807485 -0.0129083 0 -0.802417 -0.0152791 0 -0.796836 -0.0167957 0 -0.790735 -0.0173748 0 -0.784131 -0.0169624 0 -0.77704 -0.0155049 0 -0.769479 -0.0129484 0 -0.761466 -0.00923903 0 -0.753017 -0.00432299 0 -0.743231 -0.000324678 0 -0.730646 -0.000996975 0 -0.715844 -0.00549751 0 -0.699463 -0.0128626 0 -0.682137 -0.0221285 0 -0.664501 -0.0323315 0 -0.647193 -0.0425079 0 -0.630847 -0.0516941 0 -0.614113 -0.0604545 0 -0.594028 -0.0695875 0 -0.570438 -0.0770187 0 -0.543228 -0.0806398 0 -0.512286 -0.0783421 0 -0.477497 -0.0680172 0 -0.438746 -0.0475567 0 -0.395919 -0.014852 0 -0.332621 -0.0158919 0 -0.23799 -0.0883637 0 -0.127729 -0.196285 0 -0.0176249 -0.303438 0 0.0765359 -0.373604 0 0.138967 -0.370566 0 0.153881 -0.258104 0 0.105492 0 0 0.0797443 0 0 0.153182 0.250484 0 0.165131 0.369267 0 0.129912 0.38783 0 0.0618428 0.337657 0 -0.0247582 0.25023 0 -0.115572 0.157032 0 -0.19628 0.0895462 0 -0.25264 0.0790659 0 -0.294494 0.0973493 0 -0.336051 0.107593 0 -0.376484 0.111089 0 -0.414964 0.109128 0 -0.450664 0.103001 0 -0.482757 0.0940002 0 -0.510415 0.0834166 0 -0.532861 0.0725272 0 -0.553327 0.0613865 0 -0.573837 0.0500647 0 -0.593972 0.0392532 0 -0.613312 0.0296431 0 -0.63144 0.0219257 0 -0.647936 0.0167922 0 -0.662382 0.0149339 0 -0.674404 0.0169492 0 -0.685352 0.0199152 0 -0.695967 0.0221455 0 -0.706168 0.023619 0 -0.715878 0.0243149 0 -0.725019 0.0242124 0 -0.73351 0.0232905 0 -0.741274 0.0215284 0 -0.748257 0.0189376 0 -0.754935 0.0162338 0 -0.761469 0.0137651 0 -0.767796 0.0115949 0 -0.773856 0.00978674 0 -0.779586 0.00840405 0 -0.784924 0.00751036 0 -0.789808 0.00716913 0 -0.794196 0.00740731 0 -0.798312 0.00772938 0 -0.802236 0.00794615 0 -0.805959 0.00803896 0 -0.809472 0.00798917 0 -0.812767 0.00777812 0 -0.815837 0.00738715 0 -0.818674 0.00679762 0 -0.821275 0.00601122 0 -0.823714 0.00523058 0 -0.826003 0.00451914 0 -0.828134 0.00388555 0 -0.830099 0.00333848 0 -0.83189 0.00288656 0 -0.833499 0.00253846 0 -0.834918 0.00230284 0 -0.836144 0.00217267 0 -0.837208 0.0020305 0 -0.838117 0.00184819 0 -0.838873 0.00162286 0 -0.839475 0.00135167 0 -0.839926 0.00103175 0 -0.840226 0.000660244 0 -0.840376 0.000234289 0 -0.840376 -0.000234289 0 -0.840226 -0.000660244 0 -0.839926 -0.00103175 0 -0.839475 -0.00135167 0 -0.838873 -0.00162286 0 -0.838117 -0.00184819 0 -0.837208 -0.0020305 0 -0.836144 -0.00217267 0 -0.834918 -0.00230284 0 -0.833499 -0.00253846 0 -0.83189 -0.00288656 0 -0.830099 -0.00333848 0 -0.828134 -0.00388555 0 -0.826003 -0.00451914 0 -0.823714 -0.00523058 0 -0.821275 -0.00601122 0 -0.818674 -0.00679762 0 -0.815837 -0.00738715 0 -0.812767 -0.00777812 0 -0.809472 -0.00798917 0 -0.805959 -0.00803896 0 -0.802236 -0.00794615 0 -0.798312 -0.00772938 0 -0.794196 -0.00740731 0 -0.789808 -0.00716913 0 -0.784924 -0.00751036 0 -0.779586 -0.00840405 0 -0.773856 -0.00978674 0 -0.767796 -0.0115949 0 -0.761469 -0.0137651 0 -0.754935 -0.0162338 0 -0.748257 -0.0189376 0 -0.741274 -0.0215284 0 -0.73351 -0.0232905 0 -0.725019 -0.0242124 0 -0.715878 -0.0243149 0 -0.706168 -0.023619 0 -0.695967 -0.0221455 0 -0.685352 -0.0199152 0 -0.674404 -0.0169492 0 -0.662382 -0.0149339 0 -0.647936 -0.0167922 0 -0.63144 -0.0219257 0 -0.613312 -0.0296431 0 -0.593972 -0.0392532 0 -0.573837 -0.0500647 0 -0.553327 -0.0613865 0 -0.532861 -0.0725272 0 -0.510415 -0.0834166 0 -0.482757 -0.0940002 0 -0.450664 -0.103001 0 -0.414964 -0.109128 0 -0.376484 -0.111089 0 -0.336051 -0.107593 0 -0.294494 -0.0973493 0 -0.25264 -0.0790659 0 -0.19628 -0.0895462 0 -0.115572 -0.157032 0 -0.0247582 -0.25023 0 0.0618428 -0.337657 0 0.129912 -0.38783 0 0.165131 -0.369267 0 0.153182 -0.250484 0 0.0797443 0 0 0.00989955 0 0 0.076465 0.219873 0 0.102704 0.336449 0 0.0966867 0.372729 0 0.0664853 0.351713 0 0.0201706 0.296403 0 -0.0341863 0.229799 0 -0.0885143 0.174902 0 -0.134777 0.154596 0 -0.176329 0.154259 0 -0.219071 0.151277 0 -0.261998 0.145951 0 -0.304104 0.138581 0 -0.344385 0.129469 0 -0.381835 0.118915 0 -0.415448 0.10722 0 -0.444247 0.0946911 0 -0.469634 0.0822128 0 -0.492978 0.0704657 0 -0.514438 0.0597695 0 -0.534173 0.0504438 0 -0.552342 0.0428083 0 -0.569107 0.0371827 0 -0.584625 0.0338866 0 -0.599063 0.0331881 0 -0.612807 0.0333936 0 -0.62598 0.0334808 0 -0.638548 0.0333501 0 -0.650478 0.032902 0 -0.661735 0.0320367 0 -0.672284 0.0306547 0 -0.682093 0.0286563 0 -0.691133 0.0259735 0 -0.699507 0.0232336 0 -0.707307 0.0207396 0 -0.714581 0.0185237 0 -0.721377 0.0166178 0 -0.727745 0.015054 0 -0.733733 0.0138644 0 -0.73939 0.013081 0 -0.744766 0.0127134 0 -0.749893 0.0124503 0 -0.75477 0.0121645 0 -0.759393 0.0118327 0 -0.763755 0.0114317 0 -0.767853 0.0109385 0 -0.771681 0.0103297 0 -0.775234 0.00958216 0 -0.778508 0.00868893 0 -0.781516 0.00780492 0 -0.784273 0.00697859 0 -0.786791 0.00621529 0 -0.789082 0.00552035 0 -0.791158 0.00489911 0 -0.793031 0.00435691 0 -0.794713 0.00389908 0 -0.796216 0.00352041 0 -0.797541 0.0031409 0 -0.798687 0.00274008 0 -0.79965 0.00231451 0 -0.800426 0.0018607 0 -0.801013 0.00137519 0 -0.801408 0.000854522 0 -0.801607 0.000295221 0 -0.801607 -0.000295221 0 -0.801408 -0.000854522 0 -0.801013 -0.00137519 0 -0.800426 -0.0018607 0 -0.79965 -0.00231451 0 -0.798687 -0.00274008 0 -0.797541 -0.0031409 0 -0.796216 -0.00352041 0 -0.794713 -0.00389908 0 -0.793031 -0.00435691 0 -0.791158 -0.00489911 0 -0.789082 -0.00552035 0 -0.786791 -0.00621529 0 -0.784273 -0.00697859 0 -0.781516 -0.00780492 0 -0.778508 -0.00868893 0 -0.775234 -0.00958216 0 -0.771681 -0.0103297 0 -0.767853 -0.0109385 0 -0.763755 -0.0114317 0 -0.759393 -0.0118327 0 -0.75477 -0.0121645 0 -0.749893 -0.0124503 0 -0.744766 -0.0127134 0 -0.73939 -0.013081 0 -0.733733 -0.0138644 0 -0.727745 -0.015054 0 -0.721377 -0.0166178 0 -0.714581 -0.0185237 0 -0.707307 -0.0207396 0 -0.699507 -0.0232336 0 -0.691133 -0.0259735 0 -0.682093 -0.0286563 0 -0.672284 -0.0306547 0 -0.661735 -0.0320367 0 -0.650478 -0.032902 0 -0.638548 -0.0333501 0 -0.62598 -0.0334808 0 -0.612807 -0.0333936 0 -0.599063 -0.0331881 0 -0.584625 -0.0338866 0 -0.569107 -0.0371827 0 -0.552342 -0.0428083 0 -0.534173 -0.0504438 0 -0.514438 -0.0597695 0 -0.492978 -0.0704657 0 -0.469634 -0.0822128 0 -0.444247 -0.0946911 0 -0.415448 -0.10722 0 -0.381835 -0.118915 0 -0.344385 -0.129469 0 -0.304104 -0.138581 0 -0.261998 -0.145951 0 -0.219071 -0.151277 0 -0.176329 -0.154259 0 -0.134777 -0.154596 0 -0.0885143 -0.174902 0 -0.0341863 -0.229799 0 0.0201706 -0.296403 0 0.0664853 -0.351713 0 0.0966867 -0.372729 0 0.102704 -0.336449 0 0.076465 -0.219873 0 0.00989955 0 0 -0.0622265 0 0 -0.0205379 0.180571 0 0.00910805 0.290648 0 0.0270882 0.343798 0 0.0337792 0.353589 0 0.0295579 0.333587 0 0.0148012 0.297359 0 -0.0101143 0.258473 0 -0.0447982 0.230454 0 -0.0849034 0.212374 0 -0.126615 0.196462 0 -0.169109 0.182207 0 -0.211562 0.169098 0 -0.25315 0.156622 0 -0.293051 0.144269 0 -0.33044 0.131526 0 -0.364486 0.117904 0 -0.394152 0.104743 0 -0.419657 0.0930483 0 -0.441768 0.0827878 0 -0.461254 0.0739291 0 -0.478883 0.0664395 0 -0.495424 0.0602868 0 -0.511644 0.0554384 0 -0.528277 0.0518516 0 -0.544572 0.0490764 0 -0.559972 0.0467731 0 -0.574521 0.0447849 0 -0.588263 0.0429547 0 -0.601242 0.0411257 0 -0.613502 0.0391408 0 -0.625087 0.0368432 0 -0.636022 0.0341021 0 -0.645978 0.0313773 0 -0.654939 0.0288901 0 -0.663064 0.0266414 0 -0.670511 0.0246319 0 -0.67744 0.0228624 0 -0.68401 0.0213337 0 -0.690379 0.0200466 0 -0.696687 0.0189943 0 -0.702759 0.0180619 0 -0.708513 0.0171904 0 -0.713954 0.0163549 0 -0.719082 0.0155305 0 -0.723902 0.0146923 0 -0.728417 0.0138152 0 -0.732628 0.0128744 0 -0.736532 0.0118554 0 -0.740078 0.010851 0 -0.743276 0.00989017 0 -0.746159 0.0089746 0 -0.748757 0.00810589 0 -0.751102 0.00728567 0 -0.753224 0.00651556 0 -0.755154 0.00579719 0 -0.756919 0.00512738 0 -0.758491 0.0044684 0 -0.759857 0.0038088 0 -0.76101 0.00314477 0 -0.761945 0.00247252 0 -0.762656 0.00178825 0 -0.763136 0.00108814 0 -0.763379 0.000368413 0 -0.763379 -0.000368413 0 -0.763136 -0.00108814 0 -0.762656 -0.00178825 0 -0.761945 -0.00247252 0 -0.76101 -0.00314477 0 -0.759857 -0.0038088 0 -0.758491 -0.0044684 0 -0.756919 -0.00512738 0 -0.755154 -0.00579719 0 -0.753224 -0.00651556 0 -0.751102 -0.00728567 0 -0.748757 -0.00810589 0 -0.746159 -0.0089746 0 -0.743276 -0.00989017 0 -0.740078 -0.010851 0 -0.736532 -0.0118554 0 -0.732628 -0.0128744 0 -0.728417 -0.0138152 0 -0.723902 -0.0146923 0 -0.719082 -0.0155305 0 -0.713954 -0.0163549 0 -0.708513 -0.0171904 0 -0.702759 -0.0180619 0 -0.696687 -0.0189943 0 -0.690379 -0.0200466 0 -0.68401 -0.0213337 0 -0.67744 -0.0228624 0 -0.670511 -0.0246319 0 -0.663064 -0.0266414 0 -0.654939 -0.0288901 0 -0.645978 -0.0313773 0 -0.636022 -0.0341021 0 -0.625087 -0.0368432 0 -0.613502 -0.0391408 0 -0.601242 -0.0411257 0 -0.588263 -0.0429547 0 -0.574521 -0.0447849 0 -0.559972 -0.0467731 0 -0.544572 -0.0490764 0 -0.528277 -0.0518516 0 -0.511644 -0.0554384 0 -0.495424 -0.0602868 0 -0.478883 -0.0664395 0 -0.461254 -0.0739291 0 -0.441768 -0.0827878 0 -0.419657 -0.0930483 0 -0.394152 -0.104743 0 -0.364486 -0.117904 0 -0.33044 -0.131526 0 -0.293051 -0.144269 0 -0.25315 -0.156622 0 -0.211562 -0.169098 0 -0.169109 -0.182207 0 -0.126615 -0.196462 0 -0.0849034 -0.212374 0 -0.0447982 -0.230454 0 -0.0101143 -0.258473 0 0.0148012 -0.297359 0 0.0295579 -0.333587 0 0.0337792 -0.353589 0 0.0270882 -0.343798 0 0.00910805 -0.290648 0 -0.0205379 -0.180571 0 -0.0622265 0 0 -0.0948184 0 0 -0.082096 0.146878 0 -0.0582309 0.250397 0 -0.0286547 0.316533 0 0.00120095 0.351263 0 0.0259044 0.360563 0 0.0400241 0.350408 0 0.0381282 0.326774 0 0.0148316 0.295651 0 -0.0208698 0.265782 0 -0.0587411 0.240542 0 -0.0980956 0.219137 0 -0.138247 0.200774 0 -0.178509 0.184658 0 -0.218194 0.169997 0 -0.256617 0.155995 0 -0.293061 0.141883 0 -0.32492 0.128732 0 -0.351606 0.117326 0 -0.374196 0.107419 0 -0.393766 0.098763 0 -0.411393 0.0911132 0 -0.428154 0.0842228 0 -0.445126 0.0778452 0 -0.463325 0.0717518 0 -0.481391 0.066366 0 -0.498398 0.0618412 0 -0.51443 0.0580098 0 -0.529571 0.0547044 0 -0.543901 0.0517575 0 -0.557506 0.0490017 0 -0.570466 0.0462694 0 -0.582835 0.0434095 0 -0.594052 0.0406486 0 -0.604044 0.0380978 0 -0.613025 0.0357365 0 -0.62121 0.0335437 0 -0.628813 0.0314987 0 -0.636049 0.0295807 0 -0.643133 0.0277689 0 -0.65025 0.0260466 0 -0.657123 0.0244516 0 -0.66363 0.0229813 0 -0.669779 0.0216132 0 -0.675576 0.0203246 0 -0.681028 0.0190931 0 -0.686142 0.0178961 0 -0.690923 0.0167111 0 -0.695369 0.0155199 0 -0.699394 0.0143512 0 -0.703009 0.013214 0 -0.706255 0.0121066 0 -0.709172 0.0110275 0 -0.711802 0.00997506 0 -0.714185 0.00894776 0 -0.716362 0.00794399 0 -0.718365 0.00696226 0 -0.720155 0.00600101 0 -0.721712 0.00505677 0 -0.723029 0.00412579 0 -0.724098 0.00320432 0 -0.724911 0.00228861 0 -0.725461 0.00137493 0 -0.725739 0.000459522 0 -0.725739 -0.000459522 0 -0.725461 -0.00137493 0 -0.724911 -0.00228861 0 -0.724098 -0.00320432 0 -0.723029 -0.00412579 0 -0.721712 -0.00505677 0 -0.720155 -0.00600101 0 -0.718365 -0.00696226 0 -0.716362 -0.00794399 0 -0.714185 -0.00894776 0 -0.711802 -0.00997506 0 -0.709172 -0.0110275 0 -0.706255 -0.0121066 0 -0.703009 -0.013214 0 -0.699394 -0.0143512 0 -0.695369 -0.0155199 0 -0.690923 -0.0167111 0 -0.686142 -0.0178961 0 -0.681028 -0.0190931 0 -0.675576 -0.0203246 0 -0.669779 -0.0216132 0 -0.66363 -0.0229813 0 -0.657123 -0.0244516 0 -0.65025 -0.0260466 0 -0.643133 -0.0277689 0 -0.636049 -0.0295807 0 -0.628813 -0.0314987 0 -0.62121 -0.0335437 0 -0.613025 -0.0357365 0 -0.604044 -0.0380978 0 -0.594052 -0.0406486 0 -0.582835 -0.0434095 0 -0.570466 -0.0462694 0 -0.557506 -0.0490017 0 -0.543901 -0.0517575 0 -0.529571 -0.0547044 0 -0.51443 -0.0580098 0 -0.498398 -0.0618412 0 -0.481391 -0.066366 0 -0.463325 -0.0717518 0 -0.445126 -0.0778452 0 -0.428154 -0.0842228 0 -0.411393 -0.0911132 0 -0.393766 -0.098763 0 -0.374196 -0.107419 0 -0.351606 -0.117326 0 -0.32492 -0.128732 0 -0.293061 -0.141883 0 -0.256617 -0.155995 0 -0.218194 -0.169997 0 -0.178509 -0.184658 0 -0.138247 -0.200774 0 -0.0980956 -0.219137 0 -0.0587411 -0.240542 0 -0.0208698 -0.265782 0 0.0148316 -0.295651 0 0.0381282 -0.326774 0 0.0400241 -0.350408 0 0.0259044 -0.360563 0 0.00120095 -0.351263 0 -0.0286547 -0.316533 0 -0.0582309 -0.250397 0 -0.082096 -0.146878 0 -0.0948184 0 0 -0.0464018 0 0 -0.0528429 0.133022 0 -0.0422204 0.234137 0 -0.0205734 0.306354 0 0.00605915 0.352679 0 0.0316384 0.376119 0 0.0501255 0.379684 0 0.0554813 0.366378 0 0.0417058 0.339239 0 0.0151592 0.308581 0 -0.0154796 0.280903 0 -0.0492145 0.256006 0 -0.0850496 0.233694 0 -0.121989 0.21377 0 -0.159036 0.196035 0 -0.195195 0.180294 0 -0.229455 0.166348 0 -0.259988 0.153935 0 -0.286574 0.14281 0 -0.309968 0.132771 0 -0.330925 0.123611 0 -0.350203 0.115127 0 -0.368558 0.107114 0 -0.386744 0.0993674 0 -0.405482 0.0917029 0 -0.424001 0.0846642 0 -0.441709 0.0785016 0 -0.458616 0.0731088 0 -0.474733 0.0683799 0 -0.49007 0.0642087 0 -0.504637 0.060489 0 -0.518444 0.0571148 0 -0.531485 0.0539811 0 -0.54344 0.0510308 0 -0.554307 0.0482441 0 -0.564247 0.0455977 0 -0.573424 0.0430684 0 -0.582002 0.0406331 0 -0.590142 0.0382686 0 -0.598009 0.0359516 0 -0.605745 0.0336668 0 -0.613197 0.031507 0 -0.620285 0.0294944 0 -0.627007 0.0276145 0 -0.633361 0.0258526 0 -0.639344 0.0241941 0 -0.644953 0.0226245 0 -0.650187 0.0211291 0 -0.655038 0.0196919 0 -0.659459 0.0182882 0 -0.663467 0.0169102 0 -0.667095 0.0155545 0 -0.670375 0.0142176 0 -0.67334 0.0128963 0 -0.676023 0.011587 0 -0.678456 0.0102864 0 -0.680666 0.00899378 0 -0.682632 0.0077267 0 -0.684339 0.00648636 0 -0.68578 0.00526958 0 -0.686947 0.00407317 0 -0.687834 0.00289392 0 -0.688432 0.00172866 0 -0.688735 0.000574188 0 -0.688735 -0.000574188 0 -0.688432 -0.00172866 0 -0.687834 -0.00289392 0 -0.686947 -0.00407317 0 -0.68578 -0.00526958 0 -0.684339 -0.00648636 0 -0.682632 -0.0077267 0 -0.680666 -0.00899378 0 -0.678456 -0.0102864 0 -0.676023 -0.011587 0 -0.67334 -0.0128963 0 -0.670375 -0.0142176 0 -0.667095 -0.0155545 0 -0.663467 -0.0169102 0 -0.659459 -0.0182882 0 -0.655038 -0.0196919 0 -0.650187 -0.0211291 0 -0.644953 -0.0226245 0 -0.639344 -0.0241941 0 -0.633361 -0.0258526 0 -0.627007 -0.0276145 0 -0.620285 -0.0294944 0 -0.613197 -0.031507 0 -0.605745 -0.0336668 0 -0.598009 -0.0359516 0 -0.590142 -0.0382686 0 -0.582002 -0.0406331 0 -0.573424 -0.0430684 0 -0.564247 -0.0455977 0 -0.554307 -0.0482441 0 -0.54344 -0.0510308 0 -0.531485 -0.0539811 0 -0.518444 -0.0571148 0 -0.504637 -0.060489 0 -0.49007 -0.0642087 0 -0.474733 -0.0683799 0 -0.458616 -0.0731088 0 -0.441709 -0.0785016 0 -0.424001 -0.0846642 0 -0.405482 -0.0917029 0 -0.386744 -0.0993674 0 -0.368558 -0.107114 0 -0.350203 -0.115127 0 -0.330925 -0.123611 0 -0.309968 -0.132771 0 -0.286574 -0.14281 0 -0.259988 -0.153935 0 -0.229455 -0.166348 0 -0.195195 -0.180294 0 -0.159036 -0.196035 0 -0.121989 -0.21377 0 -0.0850496 -0.233694 0 -0.0492145 -0.256006 0 -0.0154796 -0.280903 0 0.0151592 -0.308581 0 0.0417058 -0.339239 0 0.0554813 -0.366378 0 0.0501255 -0.379684 0 0.0316384 -0.376119 0 0.00605915 -0.352679 0 -0.0205734 -0.306354 0 -0.0422204 -0.234137 0 -0.0528429 -0.133022 0 -0.0464018 0 0 0.0214933 0 0 0.00979295 0.129845 0 0.00999895 0.230182 0 0.0183591 0.303722 0 0.0311213 0.353174 0 0.0445332 0.381247 0 0.0548426 0.39065 0 0.0582974 0.384094 0 0.0511586 0.364308 0 0.03442 0.339073 0 0.0116792 0.313621 0 -0.0156908 0.288573 0 -0.0463166 0.264553 0 -0.0788253 0.242184 0 -0.111844 0.222089 0 -0.143998 0.204892 0 -0.173928 0.191189 0 -0.20145 0.179395 0 -0.227109 0.168241 0 -0.25111 0.157664 0 -0.273659 0.147605 0 -0.294959 0.138 0 -0.315218 0.128789 0 -0.334639 0.119912 0 -0.353429 0.111314 0 -0.37178 0.103298 0 -0.389664 0.0960061 0 -0.406998 0.0894088 0 -0.423696 0.0834746 0 -0.439674 0.0781726 0 -0.454847 0.0734719 0 -0.46913 0.0693414 0 -0.482443 0.065739 0 -0.494845 0.0623912 0 -0.506436 0.0591785 0 -0.517289 0.0560829 0 -0.527476 0.0530867 0 -0.53707 0.050172 0 -0.546145 0.047321 0 -0.554774 0.0445159 0 -0.563028 0.0417458 0 -0.570938 0.0390984 0 -0.578494 0.0365998 0 -0.585684 0.034243 0 -0.592494 0.0320213 0 -0.598914 0.0299277 0 -0.60493 0.0279554 0 -0.610531 0.0260976 0 -0.615705 0.0243424 0 -0.620467 0.022633 0 -0.624837 0.0209513 0 -0.628833 0.0192929 0 -0.632473 0.0176533 0 -0.635775 0.0160281 0 -0.638758 0.014413 0 -0.641439 0.0128034 0 -0.643836 0.0111985 0 -0.645953 0.00962142 0 -0.647785 0.00807521 0 -0.649325 0.00655709 0 -0.650569 0.00506434 0 -0.65151 0.00359421 0 -0.652143 0.00214399 0 -0.652462 0.00071094 0 -0.652462 -0.00071094 0 -0.652143 -0.00214399 0 -0.65151 -0.00359421 0 -0.650569 -0.00506434 0 -0.649325 -0.00655709 0 -0.647785 -0.00807521 0 -0.645953 -0.00962142 0 -0.643836 -0.0111985 0 -0.641439 -0.0128034 0 -0.638758 -0.014413 0 -0.635775 -0.0160281 0 -0.632473 -0.0176533 0 -0.628833 -0.0192929 0 -0.624837 -0.0209513 0 -0.620467 -0.022633 0 -0.615705 -0.0243424 0 -0.610531 -0.0260976 0 -0.60493 -0.0279554 0 -0.598914 -0.0299277 0 -0.592494 -0.0320213 0 -0.585684 -0.034243 0 -0.578494 -0.0365998 0 -0.570938 -0.0390984 0 -0.563028 -0.0417458 0 -0.554774 -0.0445159 0 -0.546145 -0.047321 0 -0.53707 -0.050172 0 -0.527476 -0.0530867 0 -0.517289 -0.0560829 0 -0.506436 -0.0591785 0 -0.494845 -0.0623912 0 -0.482443 -0.065739 0 -0.46913 -0.0693414 0 -0.454847 -0.0734719 0 -0.439674 -0.0781726 0 -0.423696 -0.0834746 0 -0.406998 -0.0894088 0 -0.389664 -0.0960061 0 -0.37178 -0.103298 0 -0.353429 -0.111314 0 -0.334639 -0.119912 0 -0.315218 -0.128789 0 -0.294959 -0.138 0 -0.273659 -0.147605 0 -0.25111 -0.157664 0 -0.227109 -0.168241 0 -0.20145 -0.179395 0 -0.173928 -0.191189 0 -0.143998 -0.204892 0 -0.111844 -0.222089 0 -0.0788253 -0.242184 0 -0.0463166 -0.264553 0 -0.0156908 -0.288573 0 0.0116792 -0.313621 0 0.03442 -0.339073 0 0.0511586 -0.364308 0 0.0582974 -0.384094 0 0.0548426 -0.39065 0 0.0445332 -0.381247 0 0.0311213 -0.353174 0 0.0183591 -0.303722 0 0.00999895 -0.230182 0 0.00979295 -0.129845 0 0.0214933 0 0 0.0480387 0 0 0.0392395 0.123762 0 0.0372702 0.221259 0 0.0401328 0.294725 0 0.0458293 0.346395 0 0.0523615 0.378503 0 0.0577314 0.393284 0 0.059941 0.392971 0 0.0569905 0.379815 0 0.0470333 0.359941 0 0.0305831 0.337808 0 0.00903364 0.314461 0 -0.0162218 0.290947 0 -0.0437897 0.26831 0 -0.0722766 0.247598 0 -0.100289 0.229855 0 -0.126455 0.216091 0 -0.151369 0.204274 0 -0.175818 0.192754 0 -0.19967 0.181547 0 -0.222796 0.17067 0 -0.245062 0.160138 0 -0.266337 0.149967 0 -0.286491 0.140175 0 -0.305412 0.13078 0 -0.323724 0.121945 0 -0.341693 0.113752 0 -0.359209 0.106207 0 -0.37616 0.0993185 0 -0.392436 0.0930915 0 -0.407925 0.087533 0 -0.422515 0.0826496 0 -0.436111 0.0784316 0 -0.448935 0.0745206 0 -0.461118 0.0707548 0 -0.47268 0.0671172 0 -0.48364 0.0635906 0 -0.494018 0.0601578 0 -0.503833 0.0568016 0 -0.513105 0.053505 0 -0.521861 0.0502571 0 -0.530215 0.0471374 0 -0.538193 0.0441718 0 -0.545783 0.0413567 0 -0.552974 0.0386885 0 -0.559754 0.0361636 0 -0.566111 0.0337782 0 -0.572034 0.0315288 0 -0.577516 0.0294056 0 -0.582592 0.0273401 0 -0.587284 0.0253098 0 -0.591599 0.0233093 0 -0.595548 0.0213329 0 -0.599139 0.0193751 0 -0.602381 0.0174306 0 -0.605284 0.0154937 0 -0.607859 0.0135626 0 -0.61012 0.0116618 0 -0.612069 0.00979464 0 -0.6137 0.00795819 0 -0.615012 0.00614971 0 -0.616001 0.0043664 0 -0.616664 0.00260549 0 -0.616996 0.000864175 0 -0.616996 -0.000864175 0 -0.616664 -0.00260549 0 -0.616001 -0.0043664 0 -0.615012 -0.00614971 0 -0.6137 -0.00795819 0 -0.612069 -0.00979464 0 -0.61012 -0.0116618 0 -0.607859 -0.0135626 0 -0.605284 -0.0154937 0 -0.602381 -0.0174306 0 -0.599139 -0.0193751 0 -0.595548 -0.0213329 0 -0.591599 -0.0233093 0 -0.587284 -0.0253098 0 -0.582592 -0.0273401 0 -0.577516 -0.0294056 0 -0.572034 -0.0315288 0 -0.566111 -0.0337782 0 -0.559754 -0.0361636 0 -0.552974 -0.0386885 0 -0.545783 -0.0413567 0 -0.538193 -0.0441718 0 -0.530215 -0.0471374 0 -0.521861 -0.0502571 0 -0.513105 -0.053505 0 -0.503833 -0.0568016 0 -0.494018 -0.0601578 0 -0.48364 -0.0635906 0 -0.47268 -0.0671172 0 -0.461118 -0.0707548 0 -0.448935 -0.0745206 0 -0.436111 -0.0784316 0 -0.422515 -0.0826496 0 -0.407925 -0.087533 0 -0.392436 -0.0930915 0