<?xml version="1.0"?> 
<VTKFile type="StructuredGrid" version="0.1"> 
<StructuredGrid WholeExtent="0 19 0 19 0 0"> 
<Piece Extent="0 19 0 19 0 0"> 
<PointData>
<DataArray type="Float32" Name="velocity" format="ascii" NumberOfComponents="3"> 
1.04433e-09 -1.04433e-09 0 0.0526073 1.01564e-12 0 0.105069 5.7894e-11 0 0.157239 -3.47852e-11 0 0.208975 2.41662e-11 0 0.260131 -1.35958e-11 0 0.310567 7.9375e-12 0 0.360143 -4.55227e-12 0 0.408721 2.1563e-12 0 0.456168 -1.0666e-12 0 0.502351 -1.55906e-13 0 0.547143 9.19029e-13 0 0.59042 -2.38082e-12 0 0.632061 4.2496e-12 0 0.671953 -7.34515e-12 0 0.709983 1.30643e-11 0 0.746047 -1.8806e-11 0 0.780044 3.12943e-11 0 0.811882 5.38716e-13 0 0.841471 -5.64272e-10 0 -1.01564e-12 -0.0526073 0 0.0525344 -0.0525344 0 0.104923 -0.0523161 0 0.157022 -0.0519529 0 0.208685 -0.0514458 0 0.259771 -0.0507962 0 0.310137 -0.0500059 0 0.359644 -0.0490772 0 0.408155 -0.0480125 0 0.455536 -0.0468149 0 0.501656 -0.0454876 0 0.546386 -0.0440344 0 0.589602 -0.0424591 0 0.631186 -0.0407663 0 0.671022 -0.0389606 0 0.709 -0.0370471 0 0.745014 -0.0350309 0 0.778964 -0.0329176 0 0.810758 -0.0307133 0 0.840306 -0.0284238 0 -5.7894e-11 -0.105069 0 0.0523161 -0.104923 0 0.104487 -0.104487 0 0.156369 -0.103762 0 0.207818 -0.102749 0 0.258691 -0.101452 0 0.308848 -0.0998734 0 0.358149 -0.0980185 0 0.406459 -0.0958921 0 0.453643 -0.0935001 0 0.499571 -0.0908492 0 0.544115 -0.0879468 0 0.587152 -0.0848007 0 0.628563 -0.0814198 0 0.668233 -0.0778134 0 0.706053 -0.0739915 0 0.741917 -0.0699647 0 0.775727 -0.0657441 0 0.807388 -0.0613415 0 0.836813 -0.056769 0 3.47852e-11 -0.157239 0 0.0519529 -0.157022 0 0.103762 -0.156369 0 0.155284 -0.155284 0 0.206375 -0.153768 0 0.256895 -0.151826 0 0.306704 -0.149464 0 0.355663 -0.146688 0 0.403637 -0.143506 0 0.450493 -0.139926 0 0.496102 -0.135959 0 0.540337 -0.131616 0 0.583075 -0.126907 0 0.624199 -0.121848 0 0.663594 -0.116451 0 0.701151 -0.110731 0 0.736766 -0.104705 0 0.770341 -0.0983885 0 0.801783 -0.0917998 0 0.831004 -0.0849569 0 -2.41662e-11 -0.208975 0 0.0514458 -0.208685 0 0.102749 -0.207818 0 0.153768 -0.206375 0 0.204361 -0.204361 0 0.254388 -0.20178 0 0.30371 -0.198641 0 0.352191 -0.194952 0 0.399697 -0.190723 0 0.446096 -0.185965 0 0.49126 -0.180693 0 0.535063 -0.17492 0 0.577384 -0.168663 0 0.618106 -0.161938 0 0.657117 -0.154765 0 0.694307 -0.147164 0 0.729575 -0.139155 0 0.762822 -0.13076 0 0.793956 -0.122004 0 0.822892 -0.112909 0 1.35958e-11 -0.260131 0 0.0507962 -0.259771 0 0.101452 -0.258691 0 0.151826 -0.256895 0 0.20178 -0.254388 0 0.251176 -0.251176 0 0.299875 -0.247268 0 0.347744 -0.242675 0 0.39465 -0.237411 0 0.440464 -0.231489 0 0.485057 -0.224926 0 0.528307 -0.21774 0 0.570094 -0.209951 0 0.610302 -0.20158 0 0.648819 -0.192652 0 0.68554 -0.183189 0 0.720363 -0.17322 0 0.75319 -0.16277 0 0.783932 -0.15187 0 0.812502 -0.140549 0 -7.9375e-12 -0.310567 0 0.0500059 -0.310137 0 0.0998734 -0.308848 0 0.149464 -0.306704 0 0.198641 -0.30371 0 0.247268 -0.299875 0 0.29521 -0.29521 0 0.342334 -0.289727 0 0.388511 -0.283442 0 0.433611 -0.276372 0 0.477511 -0.268536 0 0.520088 -0.259957 0 0.561224 -0.250657 0 0.600807 -0.240664 0 0.638725 -0.230004 0 0.674875 -0.218707 0 0.709156 -0.206805 0 0.741472 -0.194329 0 0.771736 -0.181316 0 0.799861 -0.1678 0 4.55227e-12 -0.360143 0 0.0490772 -0.359644 0 0.0980185 -0.358149 0 0.146688 -0.355663 0 0.194952 -0.352191 0 0.242675 -0.347744 0 0.289727 -0.342334 0 0.335976 -0.335976 0 0.381295 -0.328688 0 0.425558 -0.320489 0 0.468642 -0.311402 0 0.510428 -0.301454 0 0.550801 -0.29067 0 0.589648 -0.279081 0 0.626863 -0.26672 0 0.662341 -0.253619 0 0.695985 -0.239817 0 0.727701 -0.22535 0 0.757402 -0.210259 0 0.785006 -0.194586 0 -2.1563e-12 -0.408721 0 0.0480125 -0.408155 0 0.0958921 -0.406459 0 0.143506 -0.403637 0 0.190723 -0.399697 0 0.237411 -0.39465 0 0.283442 -0.388511 0 0.328688 -0.381295 0 0.373023 -0.373023 0 0.416326 -0.363719 0 0.458475 -0.353407 0 0.499355 -0.342116 0 0.538852 -0.329877 0 0.576857 -0.316726 0 0.613264 -0.302697 0 0.647972 -0.287829 0 0.680886 -0.272165 0 0.711915 -0.255747 0 0.740972 -0.23862 0 0.767976 -0.220833 0 1.0666e-12 -0.456168 0 0.0468149 -0.455536 0 0.0935001 -0.453643 0 0.139926 -0.450493 0 0.185965 -0.446096 0 0.231489 -0.440464 0 0.276372 -0.433611 0 0.320489 -0.425558 0 0.363719 -0.416326 0 0.405941 -0.405941 0 0.447039 -0.394432 0 0.486899 -0.38183 0 0.525411 -0.368171 0 0.562467 -0.353493 0 0.597966 -0.337835 0 0.631809 -0.321242 0 0.663902 -0.303759 0 0.694157 -0.285435 0 0.722489 -0.266321 0 0.74882 -0.246469 0 1.55906e-13 -0.502351 0 0.0454876 -0.501656 0 0.0908492 -0.499571 0 0.135959 -0.496102 0 0.180693 -0.49126 0 0.224926 -0.485057 0 0.268536 -0.477511 0 0.311402 -0.468642 0 0.353407 -0.458475 0 0.394432 -0.447039 0 0.434365 -0.434365 0 0.473095 -0.420488 0 0.510515 -0.405446 0 0.546521 -0.389281 0 0.581013 -0.372038 0 0.613896 -0.353765 0 0.645079 -0.334512 0 0.674476 -0.314333 0 0.702005 -0.293283 0 0.727589 -0.271421 0 -9.19029e-13 -0.547143 0 0.0440344 -0.546386 0 0.0879468 -0.544115 0 0.131616 -0.540337 0 0.17492 -0.535063 0 0.21774 -0.528307 0 0.259957 -0.520088 0 0.301454 -0.510428 0 0.342116 -0.499355 0 0.38183 -0.486899 0 0.420488 -0.473095 0 0.45798 -0.45798 0 0.494204 -0.441597 0 0.52906 -0.423991 0 0.562451 -0.405211 0 0.594283 -0.385309 0 0.62447 -0.364339 0 0.652928 -0.342361 0 0.679577 -0.319434 0 0.704344 -0.295623 0 2.38082e-12 -0.59042 0 0.0424591 -0.589602 0 0.0848007 -0.587152 0 0.126907 -0.583075 0 0.168663 -0.577384 0 0.209951 -0.570094 0 0.250657 -0.561224 0 0.29067 -0.550801 0 0.329877 -0.538852 0 0.368171 -0.525411 0 0.405446 -0.510515 0 0.441597 -0.494204 0 0.476526 -0.476526 0 0.510134 -0.457527 0 0.54233 -0.437262 0 0.573024 -0.415785 0 0.602131 -0.393157 0 0.629571 -0.36944 0 0.655267 -0.3447 0 0.679148 -0.319005 0 -4.2496e-12 -0.632061 0 0.0407663 -0.631186 0 0.0814198 -0.628563 0 0.121848 -0.624199 0 0.161938 -0.618106 0 0.20158 -0.610302 0 0.240664 -0.600807 0 0.279081 -0.589648 0 0.316726 -0.576857 0 0.353493 -0.562467 0 0.389281 -0.546521 0 0.423991 -0.52906 0 0.457527 -0.510134 0 0.489796 -0.489796 0 0.520708 -0.468101 0 0.550179 -0.44511 0 0.578125 -0.420886 0 0.604471 -0.395496 0 0.629142 -0.369011 0 0.652071 -0.341504 0 7.34515e-12 -0.671953 0 0.0389606 -0.671022 0 0.0778134 -0.668233 0 0.116451 -0.663594 0 0.154765 -0.657117 0 0.192652 -0.648819 0 0.230004 -0.638725 0 0.26672 -0.626863 0 0.302697 -0.613264 0 0.337835 -0.597966 0 0.372038 -0.581013 0 0.405211 -0.562451 0 0.437262 -0.54233 0 0.468101 -0.520708 0 0.497644 -0.497644 0 0.525809 -0.473202 0 0.552518 -0.447449 0 0.577696 -0.420457 0 0.601275 -0.3923 0 0.623189 -0.363058 0 -1.30643e-11 -0.709983 0 0.0370471 -0.709 0 0.0739915 -0.706053 0 0.110731 -0.701151 0 0.147164 -0.694307 0 0.183189 -0.68554 0 0.218707 -0.674875 0 0.253619 -0.662341 0 0.287829 -0.647972 0 0.321242 -0.631809 0 0.353765 -0.613896 0 0.385309 -0.594283 0 0.415785 -0.573024 0 0.44511 -0.550179 0 0.473202 -0.525809 0 0.499983 -0.499983 0 0.52538 -0.472773 0 0.549322 -0.444253 0 0.571743 -0.414503 0 0.59258 -0.383605 0 1.8806e-11 -0.746047 0 0.0350309 -0.745014 0 0.0699647 -0.741917 0 0.104705 -0.736766 0 0.139155 -0.729575 0 0.17322 -0.720363 0 0.206805 -0.709156 0 0.239817 -0.695985 0 0.272165 -0.680886 0 0.303759 -0.663902 0 0.334512 -0.645079 0 0.364339 -0.62447 0 0.393157 -0.602131 0 0.420886 -0.578125 0 0.447449 -0.552518 0 0.472773 -0.52538 0 0.496788 -0.496788 0 0.519427 -0.466819 0 0.540627 -0.435558 0 0.56033 -0.403091 0 -3.12943e-11 -0.780044 0 0.0329176 -0.778964 0 0.0657441 -0.775727 0 0.0983885 -0.770341 0 0.13076 -0.762822 0 0.16277 -0.75319 0 0.194329 -0.741472 0 0.22535 -0.727701 0 0.255747 -0.711915 0 0.285435 -0.694157 0 0.314333 -0.674476 0 0.342361 -0.652928 0 0.36944 -0.629571 0 0.395496 -0.604471 0 0.420457 -0.577696 0 0.444253 -0.549322 0 0.466819 -0.519427 0 0.488093 -0.488093 0 0.508014 -0.455407 0 0.526529 -0.42146 0 -5.38716e-13 -0.811882 0 0.0307133 -0.810758 0 0.0613415 -0.807388 0 0.0917998 -0.801783 0 0.122004 -0.793956 0 0.15187 -0.783932 0 0.181316 -0.771736 0 0.210259 -0.757402 0 0.23862 -0.740972 0 0.266321 -0.722489 0 0.293283 -0.702005 0 0.319434 -0.679577 0 0.3447 -0.655267 0 0.369011 -0.629142 0 0.3923 -0.601275 0 0.414503 -0.571743 0 0.435558 -0.540627 0 0.455407 -0.508014 0 0.473994 -0.473994 0 0.491269 -0.438662 0 5.64272e-10 -0.841471 0 0.0284238 -0.840306 0 0.056769 -0.836813 0 0.0849569 -0.831004 0 0.112909 -0.822892 0 0.140549 -0.812502 0 0.1678 -0.799861 0 0.194586 -0.785006 0 0.220833 -0.767976 0 0.246469 -0.74882 0 0.271421 -0.727589 0 0.295623 -0.704344 0 0.319005 -0.679148 0 0.341504 -0.652071 0 0.363058 -0.623189 0 0.383605 -0.59258 0 0.403091 -0.56033 0 0.42146 -0.526529 0 0.438662 -0.491269 0 0.454649 -0.454649 0 </DataArray> 
<DataArray type="Float32" Name="divergence" format="ascii" NumberOfComponents="1"> 
-7.66054e-15 1.23165e-07 2.52336e-07 6.4212e-08 2.49412e-07 6.83767e-08 2.10893e-07 9.52244e-08 1.61002e-07 1.27186e-07 1.162e-07 1.57278e-07 7.84231e-08 1.83864e-07 5.23303e-08 1.9448e-07 4.91449e-08 1.80067e-07 8.87621e-08 -5.10908e-08 -1.23166e-07 4.51637e-13 1.60306e-07 -4.49362e-08 1.5032e-07 -3.06755e-08 1.11417e-07 -8.39564e-10 6.8162e-08 3.38599e-08 2.81363e-08 6.79931e-08 -4.31916e-09 9.61823e-08 -2.60195e-08 1.13744e-07 -3.29492e-08 1.06116e-07 -1.00293e-09 -8.39475e-08 -2.52333e-07 -1.60307e-07 -1.73834e-13 -2.01787e-07 -6.79726e-09 -1.84312e-07 -4.08799e-08 -1.49669e-07 -7.78322e-08 -1.08457e-07 -1.10191e-07 -6.65979e-08 -1.33788e-07 -2.92712e-08 -1.45845e-07 -2.36467e-09 -1.42238e-07 6.31468e-10 -1.02104e-07 -1.42621e-07 -6.42088e-08 4.49372e-08 2.01785e-07 1.78408e-12 1.91894e-07 1.27963e-08 1.52467e-07 4.07372e-08 1.08113e-07 7.3236e-08 6.65904e-08 1.04709e-07 3.22802e-08 1.30462e-07 8.37998e-09 1.45067e-07 -2.35683e-10 1.35456e-07 2.82343e-08 -5.2534e-08 -2.49393e-07 -1.50318e-07 6.78792e-09 -1.91891e-07 -1.20588e-11 -1.74899e-07 -3.37775e-08 -1.40976e-07 -7.04881e-08 -1.00802e-07 -1.02739e-07 -6.01028e-08 -1.2658e-07 -2.41548e-08 -1.39311e-07 1.37939e-09 -1.37066e-07 2.56783e-09 -9.83624e-08 -1.43203e-07 -6.83092e-08 3.06767e-08 1.8429e-07 -1.2774e-08 1.74875e-07 2.91577e-11 1.36706e-07 2.77954e-08 9.38982e-08 6.01616e-08 5.4039e-08 9.17977e-08 2.14706e-08 1.18018e-07 -5.69866e-10 1.33901e-07 -7.42181e-09 1.26425e-07 2.28364e-08 -5.35679e-08 -2.10738e-07 -1.11412e-07 4.08243e-08 -1.52427e-07 3.36801e-08 -1.36681e-07 -1.05942e-10 -1.04859e-07 -3.71448e-08 -6.73477e-08 -7.02625e-08 -2.97846e-08 -9.56568e-08 2.68947e-09 -1.10777e-07 2.44149e-08 -1.11896e-07 2.18693e-08 -7.83156e-08 -1.23168e-07 -9.49042e-08 8.57085e-10 1.49551e-07 -4.06425e-08 1.40819e-07 -2.76096e-08 1.04731e-07 2.04904e-10 6.45056e-08 3.27812e-08 2.75142e-08 6.50735e-08 -2.02026e-09 9.24993e-08 -2.08559e-08 1.10633e-07 -2.46223e-08 1.0671e-07 7.91747e-09 -6.51697e-08 -1.60366e-07 -6.81353e-08 7.76085e-08 -1.07943e-07 7.01477e-08 -9.36664e-08 3.6614e-08 -6.43329e-08 -4.16732e-10 -3.00161e-08 -3.40733e-08 4.07039e-09 -6.06911e-08 3.26488e-08 -7.76989e-08 5.09916e-08 -8.19708e-08 4.5212e-08 -5.24489e-08 -9.66086e-08 -1.26005e-07 -3.38234e-08 1.08061e-07 -7.29216e-08 1.00228e-07 -5.96382e-08 6.66648e-08 -3.19042e-08 2.96103e-08 6.14787e-10 -4.02367e-09 3.33153e-08 -3.02356e-08 6.12985e-08 -4.58742e-08 8.12167e-08 -4.7518e-08 7.98122e-08 -1.32171e-08 -7.87862e-08 -1.14274e-07 -2.806e-08 1.09527e-07 -6.60817e-08 1.0176e-07 -5.32657e-08 6.88951e-08 -2.6552e-08 3.24468e-08 4.35465e-09 -1.15113e-09 3.49002e-08 -2.84142e-08 5.93618e-08 -4.66761e-08 7.47317e-08 -5.40266e-08 6.60929e-08 -2.84393e-08 -6.99279e-08 -1.54153e-07 -6.78647e-08 6.55232e-08 -1.03886e-07 5.85602e-08 -9.04435e-08 2.78451e-08 -6.29468e-08 -5.572e-09 -3.07667e-08 -3.52374e-08 2.44472e-09 -5.73688e-08 3.09568e-08 -6.85579e-08 5.40625e-08 -6.72904e-08 5.63014e-08 -3.00327e-08 -8.75412e-08 -7.36352e-08 4.49803e-09 1.32164e-07 -3.10376e-08 1.24209e-07 -1.95294e-08 9.24651e-08 4.66778e-09 5.7314e-08 3.21008e-08 2.4556e-08 5.93845e-08 -2.56447e-09 7.94873e-08 -2.10942e-08 9.29069e-08 -3.16663e-08 8.17684e-08 -8.46373e-09 -4.29954e-08 -1.7647e-07 -9.59569e-08 2.68342e-08 -1.28586e-07 2.05891e-08 -1.15045e-07 -7.348e-09 -8.82124e-08 -3.70939e-08 -5.73444e-08 -6.32129e-08 -2.48389e-08 -8.23928e-08 1.40316e-09 -9.1223e-08 2.48638e-08 -9.20143e-08 2.55209e-08 -5.56018e-08 -9.27786e-08 -4.21512e-08 2.64287e-08 1.42371e-07 -5.74852e-09 1.34298e-07 4.74648e-09 1.0415e-07 2.6778e-08 7.11759e-08 5.09105e-08 4.03953e-08 7.58094e-08 1.48048e-08 9.17921e-08 -1.83435e-09 1.05933e-07 -1.48689e-08 9.37001e-08 8.39661e-09 -1.2355e-08 -1.79501e-07 -1.13209e-07 -2.63078e-09 -1.41291e-07 -8.58798e-09 -1.27832e-07 -3.37753e-08 -1.0178e-07 -5.9579e-08 -7.25845e-08 -8.13195e-08 -3.98975e-08 -9.59099e-08 -1.51778e-08 -9.8647e-08 1.40169e-08 -9.79549e-08 1.84513e-08 -5.50048e-08 -8.13358e-08 -2.92094e-08 3.36515e-08 1.35578e-07 5.29762e-09 1.27393e-07 1.53664e-08 9.90902e-08 3.55801e-08 6.89709e-08 5.6109e-08 4.03887e-08 7.81378e-08 1.56877e-08 8.69981e-08 -1.02842e-09 9.90916e-08 -2.31687e-08 7.88008e-08 -3.99065e-09 1.57847e-08 -1.51712e-07 -1.05285e-07 -9.83707e-09 -1.28476e-07 -1.59841e-08 -1.15284e-07 -3.93109e-08 -9.10373e-08 -6.19197e-08 -6.54791e-08 -8.10197e-08 -3.52959e-08 -9.38795e-08 -1.75827e-08 -9.53437e-08 1.17876e-08 -1.03017e-07 9.23012e-09 -6.27821e-08 -5.63442e-08 -5.3869e-08 2.28762e-09 9.05446e-08 -1.96375e-08 8.16378e-08 -8.8715e-09 5.65093e-08 1.11587e-08 3.12758e-08 3.03621e-08 8.45574e-09 5.30515e-08 -9.83201e-09 6.0076e-08 -1.86787e-08 8.04085e-08 -3.94536e-08 6.32902e-08 -9.63409e-09 3.96232e-08 5.10909e-08 8.43284e-08 1.43409e-07 5.06394e-08 1.45571e-07 5.18495e-08 1.25116e-07 6.54125e-08 9.95931e-08 8.32479e-08 7.6191e-08 1.04795e-07 5.7719e-08 1.27276e-07 4.91774e-08 1.55782e-07 5.10008e-08 1.7898e-07 9.41017e-08 -2.13163e-14 </DataArray> 
</PointData> 
<Points> 
<DataArray type="Float32" NumberOfComponents="3"> 
0 0 0 0.0526316 0 0 0.105263 0 0 0.157895 0 0 0.210526 0 0 0.263158 0 0 0.315789 0 0 0.368421 0 0 0.421053 0 0 0.473684 0 0 0.526316 0 0 0.578947 0 0 0.631579 0 0 0.684211 0 0 0.736842 0 0 0.789474 0 0 0.842105 0 0 0.894737 0 0 0.947368 0 0 1 0 0 0 0.0526316 0 0.0526316 0.0526316 0 0.105263 0.0526316 0 0.157895 0.0526316 0 0.210526 0.0526316 0 0.263158 0.0526316 0 0.315789 0.0526316 0 0.368421 0.0526316 0 0.421053 0.0526316 0 0.473684 0.0526316 0 0.526316 0.0526316 0 0.578947 0.0526316 0 0.631579 0.0526316 0 0.684211 0.0526316 0 0.736842 0.0526316 0 0.789474 0.0526316 0 0.842105 0.0526316 0 0.894737 0.0526316 0 0.947368 0.0526316 0 1 0.0526316 0 0 0.105263 0 0.0526316 0.105263 0 0.105263 0.105263 0 0.157895 0.105263 0 0.210526 0.105263 0 0.263158 0.105263 0 0.315789 0.105263 0 0.368421 0.105263 0 0.421053 0.105263 0 0.473684 0.105263 0 0.526316 0.105263 0 0.578947 0.105263 0 0.631579 0.105263 0 0.684211 0.105263 0 0.736842 0.105263 0 0.789474 0.105263 0 0.842105 0.105263 0 0.894737 0.105263 0 0.947368 0.105263 0 1 0.105263 0 0 0.157895 0 0.0526316 0.157895 0 0.105263 0.157895 0 0.157895 0.157895 0 0.210526 0.157895 0 0.263158 0.157895 0 0.315789 0.157895 0 0.368421 0.157895 0 0.421053 0.157895 0 0.473684 0.157895 0 0.526316 0.157895 0 0.578947 0.157895 0 0.631579 0.157895 0 0.684211 0.157895 0 0.736842 0.157895 0 0.789474 0.157895 0 0.842105 0.157895 0 0.894737 0.157895 0 0.947368 0.157895 0 1 0.157895 0 0 0.210526 0 0.0526316 0.210526 0 0.105263 0.210526 0 0.157895 0.210526 0 0.210526 0.210526 0 0.263158 0.210526 0 0.315789 0.210526 0 0.368421 0.210526 0 0.421053 0.210526 0 0.473684 0.210526 0 0.526316 0.210526 0 0.578947 0.210526 0 0.631579 0.210526 0 0.684211 0.210526 0 0.736842 0.210526 0 0.789474 0.210526 0 0.842105 0.210526 0 0.894737 0.210526 0 0.947368 0.210526 0 1 0.210526 0 0 0.263158 0 0.0526316 0.263158 0 0.105263 0.263158 0 0.157895 0.263158 0 0.210526 0.263158 0 0.263158 0.263158 0 0.315789 0.263158 0 0.368421 0.263158 0 0.421053 0.263158 0 0.473684 0.263158 0 0.526316 0.263158 0 0.578947 0.263158 0 0.631579 0.263158 0 0.684211 0.263158 0 0.736842 0.263158 0 0.789474 0.263158 0 0.842105 0.263158 0 0.894737 0.263158 0 0.947368 0.263158 0 1 0.263158 0 0 0.315789 0 0.0526316 0.315789 0 0.105263 0.315789 0 0.157895 0.315789 0 0.210526 0.315789 0 0.263158 0.315789 0 0.315789 0.315789 0 0.368421 0.315789 0 0.421053 0.315789 0 0.473684 0.315789 0 0.526316 0.315789 0 0.578947 0.315789 0 0.631579 0.315789 0 0.684211 0.315789 0 0.736842 0.315789 0 0.789474 0.315789 0 0.842105 0.315789 0 0.894737 0.315789 0 0.947368 0.315789 0 1 0.315789 0 0 0.368421 0 0.0526316 0.368421 0 0.105263 0.368421 0 0.157895 0.368421 0 0.210526 0.368421 0 0.263158 0.368421 0 0.315789 0.368421 0 0.368421 0.368421 0 0.421053 0.368421 0 0.473684 0.368421 0 0.526316 0.368421 0 0.578947 0.368421 0 0.631579 0.368421 0 0.684211 0.368421 0 0.736842 0.368421 0 0.789474 0.368421 0 0.842105 0.368421 0 0.894737 0.368421 0 0.947368 0.368421 0 1 0.368421 0 0 0.421053 0 0.0526316 0.421053 0 0.105263 0.421053 0 0.157895 0.421053 0 0.210526 0.421053 0 0.263158 0.421053 0 0.315789 0.421053 0 0.368421 0.421053 0 0.421053 0.421053 0 0.473684 0.421053 0 0.526316 0.421053 0 0.578947 0.421053 0 0.631579 0.421053 0 0.684211 0.421053 0 0.736842 0.421053 0 0.789474 0.421053 0 0.842105 0.421053 0 0.894737 0.421053 0 0.947368 0.421053 0 1 0.421053 0 0 0.473684 0 0.0526316 0.473684 0 0.105263 0.473684 0 0.157895 0.473684 0 0.210526 0.473684 0 0.263158 0.473684 0 0.315789 0.473684 0 0.368421 0.473684 0 0.421053 0.473684 0 0.473684 0.473684 0 0.526316 0.473684 0 0.578947 0.473684 0 0.631579 0.473684 0 0.684211 0.473684 0 0.736842 0.473684 0 0.789474 0.473684 0 0.842105 0.473684 0 0.894737 0.473684 0 0.947368 0.473684 0 1 0.473684 0 0 0.526316 0 0.0526316 0.526316 0 0.105263 0.526316 0 0.157895 0.526316 0 0.210526 0.526316 0 0.263158 0.526316 0 0.315789 0.526316 0 0.368421 0.526316 0 0.421053 0.526316 0 0.473684 0.526316 0 0.526316 0.526316 0 0.578947 0.526316 0 0.631579 0.526316 0 0.684211 0.526316 0 0.736842 0.526316 0 0.789474 0.526316 0 0.842105 0.526316 0 0.894737 0.526316 0 0.947368 0.526316 0 1 0.526316 0 0 0.578947 0 0.0526316 0.578947 0 0.105263 0.578947 0 0.157895 0.578947 0 0.210526 0.578947 0 0.263158 0.578947 0 0.315789 0.578947 0 0.368421 0.578947 0 0.421053 0.578947 0 0.473684 0.578947 0 0.526316 0.578947 0 0.578947 0.578947 0 0.631579 0.578947 0 0.684211 0.578947 0 0.736842 0.578947 0 0.789474 0.578947 0 0.842105 0.578947 0 0.894737 0.578947 0 0.947368 0.578947 0 1 0.578947 0 0 0.631579 0 0.0526316 0.631579 0 0.105263 0.631579 0 0.157895 0.631579 0 0.210526 0.631579 0 0.263158 0.631579 0 0.315789 0.631579 0 0.368421 0.631579 0 0.421053 0.631579 0 0.473684 0.631579 0 0.526316 0.631579 0 0.578947 0.631579 0 0.631579 0.631579 0 0.684211 0.631579 0 0.736842 0.631579 0 0.789474 0.631579 0 0.842105 0.631579 0 0.894737 0.631579 0 0.947368 0.631579 0 1 0.631579 0 0 0.684211 0 0.0526316 0.684211 0 0.105263 0.684211 0 0.157895 0.684211 0 0.210526 0.684211 0 0.263158 0.684211 0 0.315789 0.684211 0 0.368421 0.684211 0 0.421053 0.684211 0 0.473684 0.684211 0 0.526316 0.684211 0 0.578947 0.684211 0 0.631579 0.684211 0 0.684211 0.684211 0 0.736842 0.684211 0 0.789474 0.684211 0 0.842105 0.684211 0 0.894737 0.684211 0 0.947368 0.684211 0 1 0.684211 0 0 0.736842 0 0.0526316 0.736842 0 0.105263 0.736842 0 0.157895 0.736842 0 0.210526 0.736842 0 0.263158 0.736842 0 0.315789 0.736842 0 0.368421 0.736842 0 0.421053 0.736842 0 0.473684 0.736842 0 0.526316 0.736842 0 0.578947 0.736842 0 0.631579 0.736842 0 0.684211 0.736842 0 0.736842 0.736842 0 0.789474 0.736842 0 0.842105 0.736842 0 0.894737 0.736842 0 0.947368 0.736842 0 1 0.736842 0 0 0.789474 0 0.0526316 0.789474 0 0.105263 0.789474 0 0.157895 0.789474 0 0.210526 0.789474 0 0.263158 0.789474 0 0.315789 0.789474 0 0.368421 0.789474 0 0.421053 0.789474 0 0.473684 0.789474 0 0.526316 0.789474 0 0.578947 0.789474 0 0.631579 0.789474 0 0.684211 0.789474 0 0.736842 0.789474 0 0.789474 0.789474 0 0.842105 0.789474 0 0.894737 0.789474 0 0.947368 0.789474 0 1 0.789474 0 0 0.842105 0 0.0526316 0.842105 0 0.105263 0.842105 0 0.157895 0.842105 0 0.210526 0.842105 0 0.263158 0.842105 0 0.315789 0.842105 0 0.368421 0.842105 0 0.421053 0.842105 0 0.473684 0.842105 0 0.526316 0.842105 0 0.578947 0.842105 0 0.631579 0.842105 0 0.684211 0.842105 0 0.736842 0.842105 0 0.789474 0.842105 0 0.842105 0.842105 0 0.894737 0.842105 0 0.947368 0.842105 0 1 0.842105 0 0 0.894737 0 0.0526316 0.894737 0 0.105263 0.894737 0 0.157895 0.894737 0 0.210526 0.894737 0 0.263158 0.894737 0 0.315789 0.894737 0 0.368421 0.894737 0 0.421053 0.894737 0 0.473684 0.894737 0 0.526316 0.894737 0 0.578947 0.894737 0 0.631579 0.894737 0 0.684211 0.894737 0 0.736842 0.894737 0 0.789474 0.894737 0 0.842105 0.894737 0 0.894737 0.894737 0 0.947368 0.894737 0 1 0.894737 0 0 0.947368 0 0.0526316 0.947368 0 0.105263 0.947368 0 0.157895 0.947368 0 0.210526 0.947368 0 0.263158 0.947368 0 0.315789 0.947368 0 0.368421 0.947368 0 0.421053 0.947368 0 0.473684 0.947368 0 0.526316 0.947368 0 0.578947 0.947368 0 0.631579 0.947368 0 0.684211 0.947368 0 0.736842 0.947368 0 0.789474 0.947368 0 0.842105 0.947368 0 0.894737 0.947368 0 0.947368 0.947368 0 1 0.947368 0 0 1 0 0.0526316 1 0 0.105263 1 0 0.157895 1 0 0.210526 1 0 0.263158 1 0 0.315789 1 0 0.368421 1 0 0.421053 1 0 0.473684 1 0 0.526316 1 0 0.578947 1 0 0.631579 1 0 0.684211 1 0 0.736842 1 0 0.789474 1 0 0.842105 1 0 0.894737 1 0 0.947368 1 0 1 1 0 
</DataArray>
</Points> 
</Piece> 
</StructuredGrid> 
</VTKFile> 
