<?xml version="1.0"?> 
<VTKFile type="StructuredGrid" version="0.1"> 
<StructuredGrid WholeExtent="0 127 0 127 0 0"> 
<Piece Extent="0 127 0 127 0 0"> 
<PointData>
<DataArray type="Float32" Name="press" format="ascii" NumberOfComponents="1"> 
272.078 204.753 147.134 99.2231 61.0192 32.5224 13.7329 4.6506 5.25451 9.54806 12.8137 15.0513 16.2609 16.4427 15.5964 13.7222 10.8322 7.87453 5.44498 3.54349 2.17007 1.32472 1.00744 1.21822 1.9443 2.71164 3.28037 3.6505 3.82203 3.79496 3.56929 3.14501 2.53161 1.93755 1.44811 1.06328 0.783079 0.607495 0.53653 0.570186 0.701413 0.827041 0.91296 0.95917 0.965671 0.932463 0.859547 0.746922 0.59903 0.462274 0.348995 0.259191 0.192864 0.150013 0.130638 0.13474 0.158923 0.176721 0.182523 0.176329 0.158138 0.127951 0.085768 0.0315884 -0.0315884 -0.085768 -0.127951 -0.158138 -0.176329 -0.182523 -0.176721 -0.158923 -0.13474 -0.130638 -0.150013 -0.192864 -0.259191 -0.348995 -0.462274 -0.59903 -0.746922 -0.859547 -0.932463 -0.965671 -0.95917 -0.91296 -0.827041 -0.701413 -0.570186 -0.53653 -0.607495 -0.783079 -1.06328 -1.44811 -1.93755 -2.53161 -3.14501 -3.56929 -3.79496 -3.82203 -3.6505 -3.28037 -2.71164 -1.9443 -1.21822 -1.00744 -1.32472 -2.17007 -3.54349 -5.44498 -7.87453 -10.8322 -13.7222 -15.5964 -16.4427 -16.2609 -15.0513 -12.8137 -9.54806 -5.25451 -4.6506 -13.7329 -32.5224 -61.0192 -99.2231 -147.134 -204.753 -272.078 214.45 164.933 122.353 86.7102 58.0046 36.236 21.4044 13.5099 12.5379 14.2932 15.4756 16.0851 16.1217 15.5854 14.4762 12.7941 10.5465 8.30739 6.4373 4.93626 3.80427 3.04134 2.64747 2.62264 2.95825 3.3341 3.58818 3.72051 3.73108 3.61989 3.38693 3.03222 2.5618 2.10895 1.72818 1.4195 1.1829 1.01838 0.925953 0.905608 0.952653 0.998376 1.02006 1.01771 0.991312 0.94088 0.866409 0.767899 0.648183 0.536854 0.441782 0.362967 0.300409 0.254108 0.224064 0.210278 0.210471 0.206894 0.195783 0.177137 0.150958 0.117245 0.0759975 0.027216 -0.027216 -0.0759975 -0.117245 -0.150958 -0.177137 -0.195783 -0.206894 -0.210471 -0.210278 -0.224064 -0.254108 -0.300409 -0.362967 -0.441782 -0.536854 -0.648183 -0.767899 -0.866409 -0.94088 -0.991312 -1.01771 -1.02006 -0.998376 -0.952653 -0.905608 -0.925953 -1.01838 -1.1829 -1.4195 -1.72818 -2.10895 -2.5618 -3.03222 -3.38693 -3.61989 -3.73108 -3.72051 -3.58818 -3.3341 -2.95825 -2.62264 -2.64747 -3.04134 -3.80427 -4.93626 -6.4373 -8.30739 -10.5465 -12.7941 -14.4762 -15.5854 -16.1217 -16.0851 -15.4756 -14.2932 -12.5379 -13.5099 -21.4044 -36.236 -58.0046 -86.7102 -122.353 -164.933 -214.45 164.476 130.197 100.498 75.3801 54.8422 38.8846 27.5073 20.7105 18.4846 18.1605 17.6382 16.9177 15.999 14.882 13.5669 12.0535 10.3454 8.70701 7.30464 6.13827 5.2079 4.51353 4.05517 3.83281 3.84129 3.88907 3.87922 3.81175 3.68666 3.50394 3.2636 2.96564 2.61326 2.277 1.98571 1.7394 1.53806 1.3817 1.27031 1.20389 1.17972 1.15783 1.12499 1.08122 1.02651 0.960868 0.884283 0.79676 0.699789 0.608925 0.528305 0.45793 0.3978 0.347914 0.308273 0.278876 0.258378 0.236298 0.210411 0.180719 0.14722 0.109915 0.0688034 0.023886 -0.023886 -0.0688034 -0.109915 -0.14722 -0.180719 -0.210411 -0.236298 -0.258378 -0.278876 -0.308273 -0.347914 -0.3978 -0.45793 -0.528305 -0.608925 -0.699789 -0.79676 -0.884283 -0.960868 -1.02651 -1.08122 -1.12499 -1.15783 -1.17972 -1.20389 -1.27031 -1.3817 -1.53806 -1.7394 -1.98571 -2.277 -2.61326 -2.96564 -3.2636 -3.50394 -3.68666 -3.81175 -3.87922 -3.88907 -3.84129 -3.83281 -4.05517 -4.51353 -5.2079 -6.13827 -7.30464 -8.70701 -10.3454 -12.0535 -13.5669 -14.882 -15.999 -16.9177 -17.6382 -18.1605 -18.4846 -20.7105 -27.5073 -38.8846 -54.8422 -75.3801 -100.498 -130.197 -164.476 122.157 100.545 81.5705 65.2327 51.532 40.4683 32.0417 26.2522 23.0948 21.1501 19.3016 17.5491 15.8928 14.3326 12.8684 11.5004 10.2287 9.0734 8.047 7.14951 6.38094 5.74129 5.23054 4.84872 4.59343 4.37655 4.15348 3.92422 3.68877 3.44713 3.1993 2.94528 2.68599 2.4417 2.2207 2.02299 1.84857 1.69744 1.5696 1.46504 1.38262 1.30539 1.22776 1.14972 1.07128 0.992427 0.91317 0.833507 0.753849 0.678487 0.608565 0.544081 0.485036 0.43143 0.383263 0.340534 0.302646 0.264934 0.226409 0.187072 0.146923 0.10596 0.0641857 0.0215984 -0.0215984 -0.0641857 -0.10596 -0.146923 -0.187072 -0.226409 -0.264934 -0.302646 -0.340534 -0.383263 -0.43143 -0.485036 -0.544081 -0.608565 -0.678487 -0.753849 -0.833507 -0.91317 -0.992427 -1.07128 -1.14972 -1.22776 -1.30539 -1.38262 -1.46504 -1.5696 -1.69744 -1.84857 -2.02299 -2.2207 -2.4417 -2.68599 -2.94528 -3.1993 -3.44713 -3.68877 -3.92422 -4.15348 -4.37655 -4.59343 -4.84872 -5.23054 -5.74129 -6.38094 -7.14951 -8.047 -9.0734 -10.2287 -11.5004 -12.8684 -14.3326 -15.8928 -17.5491 -19.3016 -21.1501 -23.0948 -26.2522 -32.0417 -40.4683 -51.532 -65.2327 -81.5705 -100.545 -122.157 87.4937 75.978 65.5694 56.2681 48.074 40.9872 35.0075 30.1351 26.3684 23.262 20.4657 17.9794 15.8032 13.937 12.3808 11.1347 10.1965 9.40655 8.66438 7.97 7.32341 6.7246 6.17359 5.67037 5.21467 4.79655 4.41097 4.05792 3.73742 3.44945 3.19403 2.97114 2.78 2.60306 2.43315 2.27027 2.11442 1.9656 1.82381 1.68905 1.56135 1.44108 1.32836 1.2232 1.1256 1.03556 0.95307 0.878138 0.810362 0.745541 0.682561 0.62142 0.562118 0.504657 0.449035 0.395252 0.343272 0.292801 0.243776 0.196198 0.150067 0.105382 0.0621443 0.0203531 -0.0203531 -0.0621443 -0.105382 -0.150067 -0.196198 -0.243776 -0.292801 -0.343272 -0.395252 -0.449035 -0.504657 -0.562118 -0.62142 -0.682561 -0.745541 -0.810362 -0.878138 -0.95307 -1.03556 -1.1256 -1.2232 -1.32836 -1.44108 -1.56135 -1.68905 -1.82381 -1.9656 -2.11442 -2.27027 -2.43315 -2.60306 -2.78 -2.97114 -3.19403 -3.44945 -3.73742 -4.05792 -4.41097 -4.79655 -5.21467 -5.67037 -6.17359 -6.7246 -7.32341 -7.97 -8.66438 -9.40655 -10.1965 -11.1347 -12.3808 -13.937 -15.8032 -17.9794 -20.4657 -23.262 -26.3684 -30.1351 -35.0075 -40.9872 -48.074 -56.2681 -65.5694 -75.978 -87.4937 60.4849 56.4946 52.495 48.4862 44.4683 40.4411 36.4048 32.3593 28.3054 24.4962 21.1306 18.2086 15.7301 13.6953 12.104 10.9564 10.2488 9.70647 9.15678 8.59972 8.03529 7.46349 6.88432 6.29777 5.70502 5.14906 4.65168 4.21285 3.8326 3.5109 3.24778 3.04322 2.89528 2.76107 2.62306 2.48124 2.33562 2.1862 2.03297 1.87593 1.71591 1.56488 1.4268 1.30167 1.18949 1.09026 1.00398 0.930654 0.869328 0.810086 0.750292 0.689945 0.629046 0.567594 0.505589 0.443031 0.380258 0.319899 0.262512 0.208097 0.156652 0.10818 0.0626793 0.0201502 -0.0201502 -0.0626793 -0.10818 -0.156652 -0.208097 -0.262512 -0.319899 -0.380258 -0.443031 -0.505589 -0.567594 -0.629046 -0.689945 -0.750292 -0.810086 -0.869328 -0.930654 -1.00398 -1.09026 -1.18949 -1.30167 -1.4268 -1.56488 -1.71591 -1.87593 -2.03297 -2.1862 -2.33562 -2.48124 -2.62306 -2.76107 -2.89528 -3.04322 -3.24778 -3.5109 -3.8326 -4.21285 -4.65168 -5.14906 -5.70502 -6.29777 -6.88432 -7.46349 -8.03529 -8.59972 -9.15678 -9.70647 -10.2488 -10.9564 -12.104 -13.6953 -15.7301 -18.2086 -21.1306 -24.4962 -28.3054 -32.3593 -36.4048 -40.4411 -44.4683 -48.4862 -52.495 -56.4946 -60.4849 41.1311 42.0953 42.3473 41.8871 40.7148 38.8302 36.2335 32.9246 28.9059 24.8526 21.2962 18.2365 15.6736 13.6075 12.0381 10.9655 10.3855 9.97315 9.5242 9.03868 8.5166 7.95794 7.36271 6.73092 6.06446 5.43409 4.87561 4.38902 3.97431 3.63149 3.36056 3.16152 3.03183 2.91573 2.79043 2.6559 2.51217 2.35922 2.19705 2.02567 1.8463 1.67679 1.52306 1.38511 1.26293 1.15653 1.06591 0.991055 0.930748 0.872123 0.81176 0.749659 0.685819 0.620241 0.552925 0.48387 0.413604 0.346229 0.282617 0.222767 0.166679 0.114354 0.0657907 0.0209897 -0.0209897 -0.0657907 -0.114354 -0.166679 -0.222767 -0.282617 -0.346229 -0.413604 -0.48387 -0.552925 -0.620241 -0.685819 -0.749659 -0.81176 -0.872123 -0.930748 -0.991055 -1.06591 -1.15653 -1.26293 -1.38511 -1.52306 -1.67679 -1.8463 -2.02567 -2.19705 -2.35922 -2.51217 -2.6559 -2.79043 -2.91573 -3.03183 -3.16152 -3.36056 -3.63149 -3.97431 -4.38902 -4.87561 -5.43409 -6.06446 -6.73092 -7.36271 -7.95794 -8.5166 -9.03868 -9.5242 -9.97315 -10.3855 -10.9655 -12.0381 -13.6075 -15.6736 -18.2365 -21.2962 -24.8526 -28.9059 -32.9246 -36.2335 -38.8302 -40.7148 -41.8871 -42.3473 -42.0953 -41.1311 29.4321 32.7801 35.1263 36.4707 36.8134 36.1544 34.4936 31.8311 28.1697 24.3314 20.9625 18.0633 15.6336 13.6736 12.183 11.1621 10.6068 10.2066 9.76665 9.28689 8.76732 8.20795 7.60878 6.96981 6.293 5.65163 5.08277 4.58641 4.16256 3.81121 3.53237 3.32603 3.18965 3.06705 2.93525 2.79425 2.64406 2.48466 2.31607 2.13827 1.95251 1.77682 1.61717 1.47354 1.34594 1.23438 1.13884 1.05934 0.994621 0.931651 0.866964 0.80056 0.732438 0.662599 0.591043 0.51777 0.443309 0.371791 0.304091 0.24021 0.180148 0.123904 0.0714784 0.0228715 -0.0228715 -0.0714784 -0.123904 -0.180148 -0.24021 -0.304091 -0.371791 -0.443309 -0.51777 -0.591043 -0.662599 -0.732438 -0.80056 -0.866964 -0.931651 -0.994621 -1.05934 -1.13884 -1.23438 -1.34594 -1.47354 -1.61717 -1.77682 -1.95251 -2.13827 -2.31607 -2.48466 -2.64406 -2.79425 -2.93525 -3.06705 -3.18965 -3.32603 -3.53237 -3.81121 -4.16256 -4.58641 -5.08277 -5.65163 -6.293 -6.96981 -7.60878 -8.20795 -8.76732 -9.28689 -9.76665 -10.2066 -10.6068 -11.1621 -12.183 -13.6736 -15.6336 -18.0633 -20.9625 -24.3314 -28.1697 -31.8311 -34.4936 -36.1544 -36.8134 -36.4707 -35.1263 -32.7801 -29.4321 25.3729 28.5392 30.8267 32.2355 32.7655 32.4167 31.1892 29.0828 26.1002 22.9343 20.1307 17.6893 15.61 13.893 12.5381 11.5455 10.9121 10.4067 9.88427 9.34466 8.78791 8.21402 7.62299 7.01482 6.39088 5.80178 5.27312 4.80492 4.39717 4.04987 3.76302 3.53662 3.36866 3.21499 3.05756 2.89635 2.73137 2.56262 2.3901 2.21381 2.0346 1.86498 1.70909 1.56692 1.43847 1.32375 1.22275 1.13548 1.06093 0.988667 0.91591 0.842661 0.768919 0.694686 0.619959 0.544741 0.469378 0.396582 0.326928 0.260416 0.197047 0.13682 0.0797354 0.0257929 -0.0257929 -0.0797354 -0.13682 -0.197047 -0.260416 -0.326928 -0.396582 -0.469378 -0.544741 -0.619959 -0.694686 -0.768919 -0.842661 -0.91591 -0.988667 -1.06093 -1.13548 -1.22275 -1.32375 -1.43847 -1.56692 -1.70909 -1.86498 -2.0346 -2.21381 -2.3901 -2.56262 -2.73137 -2.89635 -3.05756 -3.21499 -3.36866 -3.53662 -3.76302 -4.04987 -4.39717 -4.80492 -5.27312 -5.80178 -6.39088 -7.01482 -7.62299 -8.21402 -8.78791 -9.34466 -9.88427 -10.4067 -10.9121 -11.5455 -12.5381 -13.893 -15.61 -17.6893 -20.1307 -22.9343 -26.1002 -29.0828 -31.1892 -32.4167 -32.7655 -32.2355 -30.8267 -28.5392 -25.3729 24.5874 26.566 27.9437 28.7205 28.8963 28.4712 27.4451 25.8181 23.5918 21.2313 19.1026 17.2057 15.5405 14.1071 12.9055 11.9357 11.1959 10.553 9.92347 9.30716 8.70412 8.11436 7.53787 6.97464 6.42524 5.90992 5.43893 5.01228 4.62996 4.29198 3.99833 3.74902 3.54276 3.35132 3.16316 2.97827 2.79665 2.6183 2.44323 2.27143 2.10326 1.94396 1.79525 1.65714 1.52963 1.41272 1.3064 1.21068 1.12489 1.04205 0.960311 0.879666 0.800118 0.721667 0.644312 0.568054 0.493002 0.420004 0.349242 0.280714 0.214422 0.150365 0.0885427 0.0289555 -0.0289555 -0.0885427 -0.150365 -0.214422 -0.280714 -0.349242 -0.420004 -0.493002 -0.568054 -0.644312 -0.721667 -0.800118 -0.879666 -0.960311 -1.04205 -1.12489 -1.21068 -1.3064 -1.41272 -1.52963 -1.65714 -1.79525 -1.94396 -2.10326 -2.27143 -2.44323 -2.6183 -2.79665 -2.97827 -3.16316 -3.35132 -3.54276 -3.74902 -3.99833 -4.29198 -4.62996 -5.01228 -5.43893 -5.90992 -6.42524 -6.97464 -7.53787 -8.11436 -8.70412 -9.30716 -9.92347 -10.553 -11.1959 -11.9357 -12.9055 -14.1071 -15.5405 -17.2057 -19.1026 -21.2313 -23.5918 -25.8181 -27.4451 -28.4712 -28.8963 -28.7205 -27.9437 -26.566 -24.5874 23.6411 24.6527 25.2934 25.5631 25.4619 24.9897 24.1466 22.9325 21.3485 19.6705 18.1158 16.6843 15.3761 14.1911 13.1294 12.191 11.3751 10.6293 9.92072 9.24925 8.61492 8.01773 7.45768 6.93478 6.44891 5.99603 5.57409 5.18308 4.82302 4.49389 4.1957 3.92844 3.69144 3.46957 3.25664 3.05266 2.85763 2.67155 2.49441 2.32622 2.16692 2.01587 1.87285 1.73784 1.61085 1.49189 1.38095 1.27803 1.18273 1.09093 1.00151 0.914489 0.829853 0.747606 0.66775 0.590282 0.515119 0.441588 0.36955 0.299003 0.229948 0.162384 0.0963117 0.031731 -0.031731 -0.0963117 -0.162384 -0.229948 -0.299003 -0.36955 -0.441588 -0.515119 -0.590282 -0.66775 -0.747606 -0.829853 -0.914489 -1.00151 -1.09093 -1.18273 -1.27803 -1.38095 -1.49189 -1.61085 -1.73784 -1.87285 -2.01587 -2.16692 -2.32622 -2.49441 -2.67155 -2.85763 -3.05266 -3.25664 -3.46957 -3.69144 -3.92844 -4.1957 -4.49389 -4.82302 -5.18308 -5.57409 -5.99603 -6.44891 -6.93478 -7.45768 -8.01773 -8.61492 -9.24925 -9.92072 -10.6293 -11.3751 -12.191 -13.1294 -14.1911 -15.3761 -16.6843 -18.1158 -19.6705 -21.3485 -22.9325 -24.1466 -24.9897 -25.4619 -25.5631 -25.2934 -24.6527 -23.6411 22.534 22.7992 22.8757 22.7634 22.4623 21.9723 21.2936 20.4261 19.3702 18.2519 17.1703 16.1252 15.1168 14.1451 13.2099 12.3114 11.4497 10.6356 9.87604 9.17093 8.52029 7.92412 7.38244 6.89523 6.4619 6.06013 5.67861 5.31735 4.97634 4.6556 4.35511 4.07488 3.81469 3.56972 3.338 3.11954 2.91432 2.72235 2.54363 2.37816 2.22559 2.08073 1.94187 1.809 1.68214 1.56127 1.4464 1.33752 1.23446 1.1353 1.03952 0.947129 0.858124 0.772505 0.690272 0.611426 0.535728 0.461335 0.387852 0.315282 0.243624 0.172877 0.103042 0.0341195 -0.0341195 -0.103042 -0.172877 -0.243624 -0.315282 -0.387852 -0.461335 -0.535728 -0.611426 -0.690272 -0.772505 -0.858124 -0.947129 -1.03952 -1.1353 -1.23446 -1.33752 -1.4464 -1.56127 -1.68214 -1.809 -1.94187 -2.08073 -2.22559 -2.37816 -2.54363 -2.72235 -2.91432 -3.11954 -3.338 -3.56972 -3.81469 -4.07488 -4.35511 -4.6556 -4.97634 -5.31735 -5.67861 -6.06013 -6.4619 -6.89523 -7.38244 -7.92412 -8.52029 -9.17093 -9.87604 -10.6356 -11.4497 -12.3114 -13.2099 -14.1451 -15.1168 -16.1252 -17.1703 -18.2519 -19.3702 -20.4261 -21.2936 -21.9723 -22.4623 -22.7634 -22.8757 -22.7992 -22.534 21.266 21.0056 20.6907 20.3213 19.8974 19.419 18.8861 18.2988 17.657 16.9756 16.266 15.5284 14.7627 13.9689 13.147 12.297 11.4197 10.5719 9.78943 9.07219 8.42023 7.83354 7.31213 6.856 6.4642 6.10219 5.75248 5.41506 5.08994 4.77711 4.47658 4.18834 3.91252 3.65179 3.40724 3.17888 2.9667 2.77071 2.5909 2.42727 2.27926 2.13853 2.00232 1.87064 1.74348 1.62085 1.50274 1.38916 1.28007 1.17516 1.07433 0.977587 0.884931 0.796362 0.71188 0.631484 0.554831 0.479242 0.404149 0.329552 0.25545 0.181845 0.108735 0.036121 -0.036121 -0.108735 -0.181845 -0.25545 -0.329552 -0.404149 -0.479242 -0.554831 -0.631484 -0.71188 -0.796362 -0.884931 -0.977587 -1.07433 -1.17516 -1.28007 -1.38916 -1.50274 -1.62085 -1.74348 -1.87064 -2.00232 -2.13853 -2.27926 -2.42727 -2.5909 -2.77071 -2.9667 -3.17888 -3.40724 -3.65179 -3.91252 -4.18834 -4.47658 -4.77711 -5.08994 -5.41506 -5.75248 -6.10219 -6.4642 -6.856 -7.31213 -7.83354 -8.42023 -9.07219 -9.78943 -10.5719 -11.4197 -12.297 -13.147 -13.9689 -14.7627 -15.5284 -16.266 -16.9756 -17.657 -18.2988 -18.8861 -19.419 -19.8974 -20.3213 -20.6907 -21.0056 -21.266 19.8372 19.2717 18.7383 18.2368 17.7673 17.3297 16.9242 16.5507 16.2089 15.8415 15.4031 14.8938 14.3137 13.6626 12.9407 12.1478 11.2851 10.4382 9.66088 8.95305 8.31475 7.74599 7.24677 6.81707 6.45582 6.12224 5.79571 5.47623 5.1638 4.85842 4.56009 4.26881 3.98492 3.71577 3.46436 3.23071 3.01479 2.81663 2.63621 2.47354 2.32793 2.18926 2.0542 1.92274 1.79488 1.67063 1.54999 1.43294 1.31957 1.21051 1.10594 1.00586 0.910275 0.819178 0.732573 0.650458 0.572427 0.495312 0.41844 0.341812 0.265428 0.189287 0.113389 0.0377355 -0.0377355 -0.113389 -0.189287 -0.265428 -0.341812 -0.41844 -0.495312 -0.572427 -0.650458 -0.732573 -0.819178 -0.910275 -1.00586 -1.10594 -1.21051 -1.31957 -1.43294 -1.54999 -1.67063 -1.79488 -1.92274 -2.0542 -2.18926 -2.32793 -2.47354 -2.63621 -2.81663 -3.01479 -3.23071 -3.46436 -3.71577 -3.98492 -4.26881 -4.56009 -4.85842 -5.1638 -5.47623 -5.79571 -6.12224 -6.45582 -6.81707 -7.24677 -7.74599 -8.31475 -8.95305 -9.66088 -10.4382 -11.2851 -12.1478 -12.9407 -13.6626 -14.3137 -14.8938 -15.4031 -15.8415 -16.2089 -16.5507 -16.9242 -17.3297 -17.7673 -18.2368 -18.7383 -19.2717 -19.8372 18.2476 17.5977 17.0185 16.5099 16.0719 15.7045 15.4078 15.1817 15.0258 14.8496 14.5815 14.2215 13.7698 13.2263 12.5909 11.8637 11.0459 10.2345 9.49039 8.81349 8.20385 7.66147 7.18634 6.77847 6.43675 6.12026 5.80829 5.50085 5.19793 4.89953 4.60566 4.31631 4.0319 3.76166 3.50936 3.275 3.05859 2.86011 2.67957 2.51698 2.3716 2.23294 2.09751 1.96531 1.83635 1.71062 1.58813 1.46887 1.35294 1.24135 1.13435 1.03195 0.934154 0.840953 0.75235 0.668346 0.588516 0.509543 0.430725 0.352063 0.273555 0.195203 0.117005 0.038963 -0.038963 -0.117005 -0.195203 -0.273555 -0.352063 -0.430725 -0.509543 -0.588516 -0.668346 -0.75235 -0.840953 -0.934154 -1.03195 -1.13435 -1.24135 -1.35294 -1.46887 -1.58813 -1.71062 -1.83635 -1.96531 -2.09751 -2.23294 -2.3716 -2.51698 -2.67957 -2.86011 -3.05859 -3.275 -3.50936 -3.76166 -4.0319 -4.31631 -4.60566 -4.89953 -5.19793 -5.50085 -5.80829 -6.12026 -6.43675 -6.77847 -7.18634 -7.66147 -8.20385 -8.81349 -9.49039 -10.2345 -11.0459 -11.8637 -12.5909 -13.2263 -13.7698 -14.2215 -14.5815 -14.8496 -15.0258 -15.1817 -15.4078 -15.7045 -16.0719 -16.5099 -17.0185 -17.5977 -18.2476 16.4971 15.9835 15.5314 15.1407 14.8113 14.5434 14.3369 14.1918 14.1078 13.9999 13.8011 13.5115 13.1311 12.6598 12.0977 11.4448 10.7022 9.96084 9.27796 8.65352 8.08753 7.57997 7.13085 6.74017 6.40699 6.09625 5.79023 5.48892 5.19232 4.90044 4.61327 4.33082 4.05346 3.78947 3.54224 3.31178 3.09808 2.90115 2.72098 2.55757 2.41028 2.26955 2.13224 1.99835 1.86788 1.74082 1.61717 1.49695 1.38021 1.26768 1.15957 1.05586 0.95657 0.861687 0.771213 0.68515 0.603097 0.521936 0.441005 0.360304 0.279833 0.199593 0.119583 0.0398035 -0.0398035 -0.119583 -0.199593 -0.279833 -0.360304 -0.441005 -0.521936 -0.603097 -0.68515 -0.771213 -0.861687 -0.95657 -1.05586 -1.15957 -1.26768 -1.38021 -1.49695 -1.61717 -1.74082 -1.86788 -1.99835 -2.13224 -2.26955 -2.41028 -2.55757 -2.72098 -2.90115 -3.09808 -3.31178 -3.54224 -3.78947 -4.05346 -4.33082 -4.61327 -4.90044 -5.19232 -5.48892 -5.79023 -6.09625 -6.40699 -6.74017 -7.13085 -7.57997 -8.08753 -8.65352 -9.27796 -9.96084 -10.7022 -11.4448 -12.0977 -12.6598 -13.1311 -13.5115 -13.8011 -13.9999 -14.1078 -14.1918 -14.3369 -14.5434 -14.8113 -15.1407 -15.5314 -15.9835 -16.4971 14.589 14.43 14.2758 14.1265 13.9821 13.8425 13.7078 13.5779 13.4527 13.2914 13.062 12.7644 12.3986 11.9647 11.4626 10.8923 10.2548 9.61777 9.02392 8.47322 7.96568 7.5013 7.08008 6.70202 6.36649 6.05029 5.74169 5.44068 5.14726 4.86144 4.58321 4.31257 4.04973 3.79926 3.56302 3.34101 3.13323 2.93968 2.76036 2.59528 2.44393 2.29911 2.15843 2.0219 1.88951 1.76127 1.63716 1.5172 1.40137 1.28951 1.18158 1.07758 0.977508 0.881363 0.789147 0.700859 0.616169 0.532494 0.449286 0.366546 0.284273 0.202468 0.12113 0.0402598 -0.0402598 -0.12113 -0.202468 -0.284273 -0.366546 -0.449286 -0.532494 -0.616169 -0.700859 -0.789147 -0.881363 -0.977508 -1.07758 -1.18158 -1.28951 -1.40137 -1.5172 -1.63716 -1.76127 -1.88951 -2.0219 -2.15843 -2.29911 -2.44393 -2.59528 -2.76036 -2.93968 -3.13323 -3.34101 -3.56302 -3.79926 -4.04973 -4.31257 -4.58321 -4.86144 -5.14726 -5.44068 -5.74169 -6.05029 -6.36649 -6.70202 -7.08008 -7.5013 -7.96568 -8.47322 -9.02392 -9.61777 -10.2548 -10.8923 -11.4626 -11.9647 -12.3986 -12.7644 -13.062 -13.2914 -13.4527 -13.5779 -13.7078 -13.8425 -13.9821 -14.1265 -14.2758 -14.43 -14.589 12.7715 12.9991 13.1661 13.2723 13.3178 13.3025 13.2266 13.0899 12.8925 12.6457 12.3584 12.0305 11.6622 11.2532 10.8037 10.3137 9.78368 9.25484 8.7531 8.27845 7.83089 7.41042 7.01705 6.65076 6.31128 5.98808 5.67583 5.37454 5.08419 4.8048 4.53636 4.27887 4.03234 3.79713 3.57336 3.36105 3.16018 2.97076 2.79278 2.62626 2.47086 2.32195 2.178 2.03899 1.90494 1.77585 1.6517 1.53251 1.41815 1.3075 1.20023 1.09634 0.995851 0.898745 0.805028 0.714698 0.627502 0.541458 0.456146 0.371565 0.287715 0.204596 0.122209 0.0405536 -0.0405536 -0.122209 -0.204596 -0.287715 -0.371565 -0.456146 -0.541458 -0.627502 -0.714698 -0.805028 -0.898745 -0.995851 -1.09634 -1.20023 -1.3075 -1.41815 -1.53251 -1.6517 -1.77585 -1.90494 -2.03899 -2.178 -2.32195 -2.47086 -2.62626 -2.79278 -2.97076 -3.16018 -3.36105 -3.57336 -3.79713 -4.03234 -4.27887 -4.53636 -4.8048 -5.08419 -5.37454 -5.67583 -5.98808 -6.31128 -6.65076 -7.01705 -7.41042 -7.83089 -8.27845 -8.7531 -9.25484 -9.78368 -10.3137 -10.8037 -11.2532 -11.6622 -12.0305 -12.3584 -12.6457 -12.8925 -13.0899 -13.2266 -13.3025 -13.3178 -13.2723 -13.1661 -12.9991 -12.7715 11.2007 11.7301 12.1482 12.4552 12.6509 12.7354 12.7087 12.5707 12.3217 12.0135 11.6868 11.3417 10.978 10.5959 10.1953 9.77627 9.33899 8.90315 8.48113 8.0729 7.67848 7.29787 6.93106 6.57806 6.23886 5.91319 5.60092 5.30205 5.01658 4.74451 4.48585 4.24058 4.00858 3.7869 3.57433 3.37086 3.1765 2.99126 2.81512 2.64809 2.48999 2.33829 2.19214 2.05154 1.91649 1.78699 1.66304 1.54465 1.43162 1.32203 1.21538 1.11167 1.0109 0.913055 0.81815 0.72618 0.636955 0.548983 0.461947 0.375849 0.290687 0.206463 0.123175 0.0408241 -0.0408241 -0.123175 -0.206463 -0.290687 -0.375849 -0.461947 -0.548983 -0.636955 -0.72618 -0.81815 -0.913055 -1.0109 -1.11167 -1.21538 -1.32203 -1.43162 -1.54465 -1.66304 -1.78699 -1.91649 -2.05154 -2.19214 -2.33829 -2.48999 -2.64809 -2.81512 -2.99126 -3.1765 -3.37086 -3.57433 -3.7869 -4.00858 -4.24058 -4.48585 -4.74451 -5.01658 -5.30205 -5.60092 -5.91319 -6.23886 -6.57806 -6.93106 -7.29787 -7.67848 -8.0729 -8.48113 -8.90315 -9.33899 -9.77627 -10.1953 -10.5959 -10.978 -11.3417 -11.6868 -12.0135 -12.3217 -12.5707 -12.7087 -12.7354 -12.6509 -12.4552 -12.1482 -11.7301 -11.2007 9.87661 10.6228 11.2223 11.6752 11.9815 12.1411 12.1541 12.0204 11.7404 11.3948 11.0472 10.6977 10.3462 9.9928 9.63739 9.28001 8.92072 8.5627 8.20799 7.85658 7.50846 7.16365 6.82214 6.48393 6.14922 5.82561 5.51694 5.22322 4.94443 4.68058 4.43168 4.19771 3.97845 3.76857 3.5659 3.37045 3.18221 3.00119 2.82738 2.66078 2.50133 2.34813 2.20086 2.05954 1.92415 1.7947 1.6712 1.55363 1.44176 1.33313 1.22706 1.12357 1.02264 0.924293 0.828513 0.735305 0.644526 0.555066 0.46669 0.379398 0.293191 0.208067 0.124027 0.0410713 -0.0410713 -0.124027 -0.208067 -0.293191 -0.379398 -0.46669 -0.555066 -0.644526 -0.735305 -0.828513 -0.924293 -1.02264 -1.12357 -1.22706 -1.33313 -1.44176 -1.55363 -1.6712 -1.7947 -1.92415 -2.05954 -2.20086 -2.34813 -2.50133 -2.66078 -2.82738 -3.00119 -3.18221 -3.37045 -3.5659 -3.76857 -3.97845 -4.19771 -4.43168 -4.68058 -4.94443 -5.22322 -5.51694 -5.82561 -6.14922 -6.48393 -6.82214 -7.16365 -7.50846 -7.85658 -8.20799 -8.5627 -8.92072 -9.28001 -9.63739 -9.9928 -10.3462 -10.6977 -11.0472 -11.3948 -11.7404 -12.0204 -12.1541 -12.1411 -11.9815 -11.6752 -11.2223 -10.6228 -9.87661 8.79917 9.67726 10.3884 10.9325 11.3096 11.5197 11.5628 11.4389 11.1484 10.7895 10.4396 10.0987 9.7668 9.44386 9.12991 8.82495 8.52886 8.23349 7.93369 7.62947 7.32083 7.00776 6.69027 6.36835 6.04237 5.72536 5.42391 5.13804 4.86774 4.61301 4.37385 4.15026 3.94193 3.74213 3.54809 3.35981 3.1773 3.00054 2.82955 2.66432 2.50488 2.35146 2.20417 2.06299 1.92793 1.79898 1.67616 1.55945 1.44859 1.34078 1.23525 1.13203 1.0311 0.932459 0.836119 0.742073 0.650216 0.559709 0.470374 0.382213 0.295224 0.209409 0.124765 0.0412953 -0.0412953 -0.124765 -0.209409 -0.295224 -0.382213 -0.470374 -0.559709 -0.650216 -0.742073 -0.836119 -0.932459 -1.0311 -1.13203 -1.23525 -1.34078 -1.44859 -1.55945 -1.67616 -1.79898 -1.92793 -2.06299 -2.20417 -2.35146 -2.50488 -2.66432 -2.82955 -3.00054 -3.1773 -3.35981 -3.54809 -3.74213 -3.94193 -4.15026 -4.37385 -4.61301 -4.86774 -5.13804 -5.42391 -5.72536 -6.04237 -6.36835 -6.69027 -7.00776 -7.32083 -7.62947 -7.93369 -8.23349 -8.52886 -8.82495 -9.12991 -9.44386 -9.7668 -10.0987 -10.4396 -10.7895 -11.1484 -11.4389 -11.5628 -11.5197 -11.3096 -10.9325 -10.3884 -9.67726 -8.79917 7.96841 8.8935 9.64632 10.2269 10.6351 10.8711 10.9348 10.8263 10.5458 10.1977 9.86402 9.54467 9.2397 8.94911 8.6729 8.41107 8.16343 7.91551 7.65823 7.39158 7.11557 6.8302 6.53545 6.23135 5.91831 5.61242 5.32183 5.04652 4.78651 4.54179 4.31236 4.09823 3.89905 3.70759 3.52089 3.33895 3.16176 2.98933 2.82165 2.65873 2.50062 2.34829 2.20205 2.06189 1.92782 1.79983 1.67793 1.56211 1.45211 1.34498 1.23996 1.13705 1.03625 0.937554 0.840965 0.746485 0.654025 0.562911 0.473 0.384293 0.296789 0.210488 0.12539 0.041496 -0.041496 -0.12539 -0.210488 -0.296789 -0.384293 -0.473 -0.562911 -0.654025 -0.746485 -0.840965 -0.937554 -1.03625 -1.13705 -1.23996 -1.34498 -1.45211 -1.56211 -1.67793 -1.79983 -1.92782 -2.06189 -2.20205 -2.34829 -2.50062 -2.65873 -2.82165 -2.98933 -3.16176 -3.33895 -3.52089 -3.70759 -3.89905 -4.09823 -4.31236 -4.54179 -4.78651 -5.04652 -5.32183 -5.61242 -5.91831 -6.23135 -6.53545 -6.8302 -7.11557 -7.39158 -7.65823 -7.91551 -8.16343 -8.41107 -8.6729 -8.94911 -9.2397 -9.54467 -9.86402 -10.1977 -10.5458 -10.8263 -10.9348 -10.8711 -10.6351 -10.2269 -9.64632 -8.8935 -7.96841 7.38433 8.2715 8.9962 9.55842 9.95817 10.1954 10.2702 10.1825 9.9327 9.61944 9.3204 9.03557 8.76495 8.50854 8.26635 8.03838 7.82441 7.60877 7.38161 7.14292 6.89271 6.63096 6.3577 6.0729 5.77703 5.48681 5.21068 4.94866 4.70074 4.46693 4.24722 4.04161 3.84979 3.66496 3.48431 3.30786 3.1356 2.96754 2.80367 2.64398 2.48858 2.33862 2.19451 2.05625 1.92382 1.79725 1.67651 1.56162 1.4523 1.34574 1.24119 1.13864 1.03811 0.939576 0.843054 0.748539 0.655952 0.564672 0.474567 0.385638 0.297884 0.211305 0.125902 0.0416734 -0.0416734 -0.125902 -0.211305 -0.297884 -0.385638 -0.474567 -0.564672 -0.655952 -0.748539 -0.843054 -0.939576 -1.03811 -1.13864 -1.24119 -1.34574 -1.4523 -1.56162 -1.67651 -1.79725 -1.92382 -2.05625 -2.19451 -2.33862 -2.48858 -2.64398 -2.80367 -2.96754 -3.1356 -3.30786 -3.48431 -3.66496 -3.84979 -4.04161 -4.24722 -4.46693 -4.70074 -4.94866 -5.21068 -5.48681 -5.77703 -6.0729 -6.3577 -6.63096 -6.89271 -7.14292 -7.38161 -7.60877 -7.82441 -8.03838 -8.26635 -8.50854 -8.76495 -9.03557 -9.3204 -9.61944 -9.9327 -10.1825 -10.2702 -10.1954 -9.95817 -9.55842 -8.9962 -8.2715 -7.38433 7.04692 7.81127 8.43802 8.92716 9.27868 9.4926 9.5689 9.5076 9.30897 9.05462 8.80877 8.57141 8.34254 8.12216 7.91027 7.70687 7.51181 7.31327 7.10383 6.88348 6.65222 6.41006 6.15699 5.89302 5.61854 5.34851 5.09048 4.84446 4.61044 4.38842 4.17841 3.98041 3.79416 3.61422 3.43835 3.26655 3.09883 2.93518 2.7756 2.6201 2.46873 2.32245 2.18156 2.04605 1.91594 1.79123 1.6719 1.55796 1.44918 1.34306 1.23893 1.1368 1.03667 0.938527 0.842383 0.748236 0.655998 0.564993 0.475076 0.386248 0.29851 0.21186 0.126299 0.0418275 -0.0418275 -0.126299 -0.21186 -0.29851 -0.386248 -0.475076 -0.564993 -0.655998 -0.748236 -0.842383 -0.938527 -1.03667 -1.1368 -1.23893 -1.34306 -1.44918 -1.55796 -1.6719 -1.79123 -1.91594 -2.04605 -2.18156 -2.32245 -2.46873 -2.6201 -2.7756 -2.93518 -3.09883 -3.26655 -3.43835 -3.61422 -3.79416 -3.98041 -4.17841 -4.38842 -4.61044 -4.84446 -5.09048 -5.34851 -5.61854 -5.89302 -6.15699 -6.41006 -6.65222 -6.88348 -7.10383 -7.31327 -7.51181 -7.70687 -7.91027 -8.12216 -8.34254 -8.57141 -8.80877 -9.05462 -9.30897 -9.5076 -9.5689 -9.4926 -9.27868 -8.92716 -8.43802 -7.81127 -7.04692 6.95082 7.50965 7.97041 8.3331 8.59773 8.76428 8.83277 8.80318 8.67572 8.50367 8.32898 8.15164 7.97165 7.78902 7.60373 7.41581 7.22519 7.02889 6.82503 6.61359 6.39459 6.16802 5.93388 5.69218 5.4432 5.19776 4.96135 4.73396 4.51559 4.30624 4.10591 3.91461 3.73218 3.55545 3.3831 3.21514 3.05157 2.89239 2.73759 2.58718 2.44118 2.29983 2.16321 2.03133 1.90418 1.78177 1.66409 1.55115 1.44276 1.33695 1.23322 1.13155 1.03196 0.934434 0.83898 0.745597 0.654176 0.563879 0.474528 0.386122 0.298662 0.212148 0.126579 0.0419567 -0.0419567 -0.126579 -0.212148 -0.298662 -0.386122 -0.474528 -0.563879 -0.654176 -0.745597 -0.83898 -0.934434 -1.03196 -1.13155 -1.23322 -1.33695 -1.44276 -1.55115 -1.66409 -1.78177 -1.90418 -2.03133 -2.16321 -2.29983 -2.44118 -2.58718 -2.73759 -2.89239 -3.05157 -3.21514 -3.3831 -3.55545 -3.73218 -3.91461 -4.10591 -4.30624 -4.51559 -4.73396 -4.96135 -5.19776 -5.4432 -5.69218 -5.93388 -6.16802 -6.39459 -6.61359 -6.82503 -7.02889 -7.22519 -7.41581 -7.60373 -7.78902 -7.97165 -8.15164 -8.32898 -8.50367 -8.67572 -8.80318 -8.83277 -8.76428 -8.59773 -8.3331 -7.97041 -7.50965 -6.95082 6.89723 7.24953 7.54315 7.77811 7.9544 8.07202 8.13097 8.13125 8.07295 7.98107 7.87527 7.75555 7.62191 7.47435 7.31287 7.13747 6.94823 6.75127 6.55043 6.34572 6.13712 5.92465 5.7083 5.48808 5.26415 5.043 4.82793 4.61893 4.41599 4.21913 4.02833 3.8436 3.66491 3.49132 3.32249 3.15839 2.99904 2.84444 2.69457 2.54945 2.40905 2.27287 2.14076 2.01272 1.88875 1.76884 1.65301 1.54125 1.43342 1.32811 1.22495 1.12394 1.02507 0.928354 0.833784 0.741362 0.650958 0.561567 0.472975 0.385182 0.298188 0.211992 0.126596 0.041999 -0.041999 -0.126596 -0.211992 -0.298188 -0.385182 -0.472975 -0.561567 -0.650958 -0.741362 -0.833784 -0.928354 -1.02507 -1.12394 -1.22495 -1.32811 -1.43342 -1.54125 -1.65301 -1.76884 -1.88875 -2.01272 -2.14076 -2.27287 -2.40905 -2.54945 -2.69457 -2.84444 -2.99904 -3.15839 -3.32249 -3.49132 -3.66491 -3.8436 -4.02833 -4.21913 -4.41599 -4.61893 -4.82793 -5.043 -5.26415 -5.48808 -5.7083 -5.92465 -6.13712 -6.34572 -6.55043 -6.75127 -6.94823 -7.13747 -7.31287 -7.47435 -7.62191 -7.75555 -7.87527 -7.98107 -8.07295 -8.13125 -8.13097 -8.07202 -7.9544 -7.77811 -7.54315 -7.24953 -6.89723 6.78556 6.97165 7.13083 7.26311 7.36848 7.44694 7.4985 7.52316 7.52092 7.49415 7.44474 7.37266 7.27794 7.16056 7.02053 6.85785 6.67268 6.4782 6.28269 6.08615 5.88858 5.68997 5.49034 5.28967 5.08805 4.88851 4.69258 4.50026 4.31155 4.12645 3.94496 3.76708 3.59286 3.4232 3.25848 3.09871 2.94388 2.79399 2.64905 2.50905 2.37392 2.24263 2.11484 1.99054 1.86973 1.75242 1.6386 1.52828 1.42136 1.31688 1.21459 1.11448 1.01656 0.920821 0.827271 0.735907 0.646585 0.558177 0.470445 0.383389 0.297009 0.211304 0.126276 0.041923 -0.041923 -0.126276 -0.211304 -0.297009 -0.383389 -0.470445 -0.558177 -0.646585 -0.735907 -0.827271 -0.920821 -1.01656 -1.11448 -1.21459 -1.31688 -1.42136 -1.52828 -1.6386 -1.75242 -1.86973 -1.99054 -2.11484 -2.24263 -2.37392 -2.50905 -2.64905 -2.79399 -2.94388 -3.09871 -3.25848 -3.4232 -3.59286 -3.76708 -3.94496 -4.12645 -4.31155 -4.50026 -4.69258 -4.88851 -5.08805 -5.28967 -5.49034 -5.68997 -5.88858 -6.08615 -6.28269 -6.4782 -6.67268 -6.85785 -7.02053 -7.16056 -7.27794 -7.37266 -7.44474 -7.49415 -7.52092 -7.5