<?xml version="1.0"?> 
<VTKFile type="StructuredGrid" version="0.1"> 
<StructuredGrid WholeExtent="0 19 0 19 0 0"> 
<Piece Extent="0 19 0 19 0 0"> 
<PointData>
<DataArray type="Float32" Name="velocity" format="ascii" NumberOfComponents="3"> 
0 0 0 0.0526077 0 0 0.10507 0 0 0.157241 0 0 0.208977 0 0 0.260134 0 0 0.310571 0 0 0.360147 0 0 0.408727 0 0 0.456174 0 0 0.502359 0 0 0.547152 0 0 0.59043 0 0 0.632073 0 0 0.671966 0 0 0.709997 0 0 0.746063 0 0 0.780063 0 0 0.811902 0 0 0.841539 0 0 0 -0.0526077 0 0.0525249 -0.0552948 0 0.104887 -0.0578153 0 0.156942 -0.0601455 0 0.208542 -0.0622602 0 0.259546 -0.0641443 0 0.309809 -0.0657729 0 0.359194 -0.0671277 0 0.407561 -0.0681957 0 0.454776 -0.0689497 0 0.500709 -0.0693825 0 0.545231 -0.0694799 0 0.588219 -0.0692189 0 0.629553 -0.0685998 0 0.669121 -0.0676065 0 0.706812 -0.0662284 0 0.742522 -0.0644682 0 0.776152 -0.0623094 0 0.807603 -0.0597497 0 0.836786 -0.0567717 0 0 -0.10507 0 0.0522833 -0.11042 0 0.104355 -0.115435 0 0.156068 -0.120068 0 0.207274 -0.124268 0 0.257828 -0.128006 0 0.307585 -0.131231 0 0.356404 -0.133908 0 0.404148 -0.136012 0 0.450682 -0.137487 0 0.495873 -0.13832 0 0.539596 -0.138483 0 0.581728 -0.137931 0 0.622151 -0.136665 0 0.660753 -0.134652 0 0.697425 -0.131872 0 0.732066 -0.128328 0 0.76458 -0.123983 0 0.794878 -0.118843 0 0.822881 -0.112913 0 0 -0.157241 0 0.0518816 -0.165206 0 0.103472 -0.172664 0 0.154617 -0.179544 0 0.205168 -0.185772 0 0.254974 -0.191302 0 0.303889 -0.196061 0 0.351771 -0.199995 0 0.398481 -0.203068 0 0.443883 -0.205198 0 0.487845 -0.206366 0 0.530243 -0.206531 0 0.570956 -0.205626 0 0.609868 -0.203655 0 0.64687 -0.20057 0 0.68186 -0.196339 0 0.714742 -0.190972 0 0.745426 -0.184417 0 0.773833 -0.176688 0 0.79989 -0.1678 0 0 -0.208976 0 0.0513189 -0.219485 0 0.102234 -0.22931 0 0.152586 -0.238356 0 0.202219 -0.246523 0 0.25098 -0.253756 0 0.29872 -0.259954 0 0.345293 -0.265049 0 0.390559 -0.268994 0 0.434383 -0.27168 0 0.476633 -0.273086 0 0.517186 -0.27316 0 0.555924 -0.271813 0 0.592737 -0.269052 0 0.627521 -0.264819 0 0.660181 -0.259074 0 0.690628 -0.251833 0 0.718783 -0.243033 0 0.744576 -0.232695 0 0.767945 -0.220845 0 0 -0.260133 0 0.0506006 -0.27309 0 0.100654 -0.285179 0 0.149994 -0.296281 0 0.198459 -0.306273 0 0.24589 -0.315086 0 0.292135 -0.322598 0 0.337046 -0.328725 0 0.380479 -0.333411 0 0.4223 -0.336523 0 0.462381 -0.338038 0 0.500599 -0.337894 0 0.536843 -0.335985 0 0.571006 -0.332325 0 0.602994 -0.326843 0 0.63272 -0.319498 0 0.660106 -0.310313 0 0.685085 -0.299217 0 0.707599 -0.286242 0 0.727601 -0.271424 0 0 -0.31057 0 0.049726 -0.325858 0 0.098731 -0.340085 0 0.146842 -0.353109 0 0.193888 -0.364782 0 0.239707 -0.375027 0 0.28414 -0.383699 0 0.327038 -0.3907 0 0.368256 -0.395967 0 0.407661 -0.399347 0 0.445126 -0.400814 0 0.480534 -0.400302 0 0.513778 -0.397687 0 0.544761 -0.392995 0 0.573398 -0.386147 0 0.599613 -0.377099 0 0.623342 -0.365889 0 0.644533 -0.35244 0 0.663145 -0.336798 0 0.679148 -0.319013 0 0 -0.360146 0 0.0486984 -0.377625 0 0.0964736 -0.39384 0 0.143143 -0.408625 0 0.188529 -0.421811 0 0.232462 -0.433312 0 0.27478 -0.442961 0 0.315331 -0.45065 0 0.35397 -0.456312 0 0.390566 -0.45977 0 0.424994 -0.461007 0 0.457145 -0.459949 0 0.48692 -0.45646 0 0.514231 -0.450581 0 0.539006 -0.442229 0 0.561183 -0.431362 0 0.580714 -0.418034 0 0.597567 -0.402166 0 0.611719 -0.383824 0 0.623165 -0.363074 0 0 -0.408726 0 0.0475231 -0.428233 0 0.0938936 -0.446261 0 0.138919 -0.462623 0 0.182413 -0.477125 0 0.224202 -0.489678 0 0.264118 -0.500093 0 0.302008 -0.508256 0 0.337729 -0.514096 0 0.37115 -0.517418 0 0.402154 -0.518213 0 0.430639 -0.516407 0 0.456515 -0.511853 0 0.47971 -0.504611 0 0.500165 -0.494598 0 0.517836 -0.481779 0 0.532695 -0.466228 0 0.544731 -0.44787 0 0.553947 -0.426793 0 0.560362 -0.403087 0 0 -0.456174 0 0.0461996 -0.477527 0 0.0909908 -0.497174 0 0.134171 -0.514906 0 0.175546 -0.530508 0 0.214936 -0.543888 0 0.252171 -0.554837 0 0.287095 -0.563236 0 0.319569 -0.569018 0 0.349466 -0.571969 0 0.376678 -0.572093 0 0.401113 -0.56932 0 0.422693 -0.563496 0 0.441363 -0.554704 0 0.457081 -0.542865 0 0.469826 -0.527956 0 0.479593 -0.510077 0 0.486397 -0.489161 0 0.490268 -0.465321 0 0.491257 -0.438678 0 0 -0.502358 0 0.0447355 -0.525355 0 0.0877826 -0.546405 0 0.128929 -0.565277 0 0.167973 -0.581735 0 0.204728 -0.595691 0 0.239024 -0.606917 0 0.270705 -0.615291 0 0.299636 -0.620753 0 0.325698 -0.623073 0 0.348792 -0.622275 0 0.368839 -0.618295 0 0.38578 -0.610975 0 0.399577 -0.600429 0 0.410211 -0.586586 0 0.417685 -0.569439 0 0.422023 -0.54912 0 0.423268 -0.525574 0 0.421486 -0.498948 0 0.416759 -0.469393 0 0 -0.547152 0 0.043135 -0.57157 0 0.0842797 -0.593785 0 0.123212 -0.613547 0 0.159723 -0.6306 0 0.193622 -0.644859 0 0.224739 -0.656083 0 0.252922 -0.664149 0 0.27804 -0.66901 0 0.299985 -0.670423 0 0.318671 -0.668434 0 0.334037 -0.662992 0 0.346043 -0.653941 0 0.354673 -0.641428 0 0.359937 -0.625396 0 0.361865 -0.605862 0 0.360513 -0.582991 0 0.355961 -0.55675 0 0.348307 -0.527323 0 0.337675 -0.494897 0 0 -0.59043 0 0.0414002 -0.616032 0 0.0804874 -0.63916 0 0.117031 -0.659545 0 0.150815 -0.676911 0 0.181649 -0.691186 0 0.209361 -0.702112 0 0.233806 -0.709575 0 0.254864 -0.71354 0 0.272438 -0.713757 0 0.286462 -0.7103 0 0.296892 -0.703134 0 0.303714 -0.69211 0 0.30694 -0.677416 0 0.306609 -0.659012 0 0.302787 -0.636945 0 0.295565 -0.611418 0 0.28506 -0.582427 0 0.271415 -0.550197 0 0.254795 -0.514955 0 0 -0.632074 0 0.0395399 -0.658603 0 0.0764268 -0.682371 0 0.110422 -0.703091 0 0.141305 -0.720471 0 0.168883 -0.734452 0 0.192992 -0.744767 0 0.213492 -0.751311 0 0.230279 -0.754069 0 0.243273 -0.752786 0 0.252427 -0.74757 0 0.257723 -0.738407 0 0.259176 -0.725162 0 0.256827 -0.708066 0 0.250754 -0.687106 0 0.241059 -0.662361 0 0.227876 -0.634082 0 0.211364 -0.602295 0 0.191713 -0.567274 0 0.169133 -0.529289 0 0 -0.671967 0 0.0375584 -0.699153 0 0.0721083 -0.723275 0 0.103403 -0.744028 0 0.131221 -0.761107 0 0.155369 -0.774472 0 0.175693 -0.783851 0 0.192068 -0.789152 0 0.204403 -0.790383 0 0.212641 -0.787291 0 0.21676 -0.780021 0 0.216771 -0.768588 0 0.212721 -0.752874 0 0.204692 -0.73316 0 0.192799 -0.709466 0 0.177188 -0.681911 0 0.15804 -0.650794 0 0.135562 -0.616184 0 0.109991 -0.578403 0 0.0815904 -0.537769 0 0 -0.71 0 0.0354615 -0.737559 0 0.0675466 -0.761735 0 0.0960008 -0.782204 0 0.120599 -0.798654 0 0.141162 -0.811073 0 0.157545 -0.819182 0 0.169639 -0.822906 0 0.177376 -0.822285 0 0.180722 -0.817068 0 0.179685 -0.807448 0 0.174313 -0.79347 0 0.16469 -0.775044 0 0.150941 -0.752505 0 0.133225 -0.725909 0 0.111738 -0.695424 0 0.086711 -0.661401 0 0.0584044 -0.623957 0 0.027109 -0.583467 0 -0.00685857 -0.540297 0 0 -0.746067 0 0.0332587 -0.773703 0 0.0627624 -0.797616 0 0.0882443 -0.81747 0 0.109491 -0.832954 0 0.126335 -0.844085 0 0.138649 -0.850578 0 0.146341 -0.852385 0 0.149368 -0.84958 0 0.147729 -0.841922 0 0.141466 -0.829656 0 0.130667 -0.812865 0 0.115461 -0.791491 0 0.0960181 -0.765929 0 0.0725511 -0.73628 0 0.0453089 -0.702765 0 0.0145767 -0.665789 0 -0.0193276 -0.625527 0 -0.0560556 -0.582408 0 -0.095234 -0.536847 0 0 -0.780068 0 0.0309576 -0.807478 0 0.0577622 -0.830796 0 0.0801491 -0.849702 0 0.0979285 -0.863879 0 0.110943 -0.873374 0 0.11908 -0.877905 0 0.122276 -0.877452 0 0.120517 -0.872133 0 0.113839 -0.861722 0 0.102326 -0.846521 0 0.0861101 -0.826658 0 0.0653713 -0.802112 0 0.0403339 -0.773345 0 0.0112656 -0.740508 0 -0.0215261 -0.703879 0 -0.0576964 -0.663924 0 -0.0968664 -0.62088 0 -0.138627 -0.575233 0 -0.182545 -0.527443 0 0 -0.811909 0 0.0285663 -0.838774 0 0.0525527 -0.861165 0 0.0717527 -0.878783 0 0.08597 -0.8913 0 0.0950629 -0.898803 0 0.0989443 -0.901021 0 0.0975812 -0.897968 0 0.090997 -0.889807 0 0.0792696 -0.876338 0 0.0625304 -0.857923 0 0.0409643 -0.834741 0 0.0148061 -0.806818 0 -0.0156607 -0.774684 0 -0.0501076 -0.738546 0 -0.0881641 -0.698748 0 -0.129422 -0.655816 0 -0.173439 -0.610059 0 -0.219743 -0.562022 0 -0.267836 -0.512202 0 0 -0.84154 0 0.0260559 -0.867498 0 0.0471656 -0.888624 0 0.0630962 -0.9046 0 0.0736702 -0.915099 0 0.078771 -0.920256 0 0.0783426 -0.919811 0 0.0723888 -0.91382 0 0.0609761 -0.9025 0 0.0442309 -0.885677 0 0.0223381 -0.863786 0 -0.00445964 -0.837059 0 -0.0358658 -0.805578 0 -0.0715327 -0.769941 0 -0.111066 -0.730421 0 -0.154027 -0.687431 0 -0.199941 -0.641557 0 -0.2483 -0.593183 0 -0.298568 -0.542916 0 -0.350204 -0.491336 0 </DataArray> 
<DataArray type="Float32" Name="divergence" format="ascii" NumberOfComponents="1"> 
2.22045e-16 -5.55112e-17 2.22045e-16 -1.94289e-15 6.66134e-16 1.9984e-15 -1.44329e-15 7.77156e-16 5.55112e-15 1.66533e-16 -1.55431e-15 2.83107e-15 6.38378e-15 -1.11022e-15 -1.24345e-14 -7.32747e-15 7.77156e-15 -5.60663e-15 -6.77236e-15 6.21725e-15 2.22045e-16 3.33067e-16 0 9.71445e-16 0 -2.88658e-15 -1.66533e-16 2.22045e-16 -1.77636e-15 -6.43929e-15 2.88658e-15 -7.63278e-15 4.44089e-16 -8.88178e-16 1.38778e-15 -3.10862e-15 7.32747e-15 -4.94049e-15 7.77156e-15 -2.15383e-14 8.88178e-16 0 0 0 -8.88178e-16 8.88178e-16 0 -2.22045e-15 0 2.22045e-15 -2.66454e-15 -2.44249e-15 2.22045e-15 2.66454e-15 -5.88418e-15 3.55271e-15 -7.99361e-15 -2.22045e-16 -4.44089e-15 -3.19744e-14 -2.22045e-16 -3.16414e-15 -1.88738e-15 6.18949e-15 1.55431e-15 6.21725e-15 1.11022e-15 1.33227e-15 8.43769e-15 7.82707e-15 2.55351e-15 -1.0783e-14 -9.99201e-16 3.55271e-15 -7.63278e-15 -5.55112e-15 -7.99361e-15 1.09912e-14 4.77396e-15 -2.70894e-14 -1.77636e-15 4.44089e-16 8.88178e-16 -3.9968e-15 -8.88178e-16 -1.77636e-15 1.9984e-15 8.88178e-16 -4.44089e-15 -8.88178e-15 -5.32907e-15 -3.66374e-15 1.77636e-15 2.66454e-15 -3.9968e-15 4.44089e-15 -2.66454e-15 3.55271e-15 -4.44089e-15 8.88178e-16 -3.55271e-15 -4.44089e-15 3.55271e-15 -3.10862e-15 -1.77636e-15 5.32907e-15 -2.66454e-15 3.55271e-15 -1.42109e-14 -1.77636e-15 7.10543e-15 -9.99201e-16 -1.77636e-15 0 0 4.44089e-15 1.77636e-15 6.21725e-15 3.55271e-15 -1.77636e-15 3.55271e-15 1.55431e-15 -2.22045e-15 -2.88658e-15 -4.44089e-16 -6.21725e-15 5.10703e-15 -3.10862e-15 -7.10543e-15 1.9984e-15 2.22045e-15 2.77556e-15 -4.44089e-16 -3.10862e-15 -5.44009e-15 4.44089e-16 2.66454e-15 -2.22045e-15 4.88498e-15 -3.01981e-14 0 3.55271e-15 -3.55271e-15 8.88178e-16 0 -3.55271e-15 0 -5.32907e-15 5.32907e-15 -2.66454e-15 0 1.22125e-15 6.21725e-15 -1.77636e-15 -3.55271e-15 -6.21725e-15 -3.55271e-15 3.55271e-15 8.88178e-16 7.10543e-15 -7.10543e-15 -3.55271e-15 -3.55271e-15 7.99361e-15 7.10543e-15 3.55271e-15 1.24345e-14 1.06581e-14 -2.13163e-14 1.06581e-14 7.10543e-15 -9.76996e-15 -1.77636e-15 -1.06581e-14 -1.24345e-14 1.77636e-15 3.55271e-15 8.88178e-15 -7.10543e-15 1.06581e-14 -5.32907e-15 -4.44089e-16 -1.77636e-15 -2.66454e-15 3.55271e-15 -1.77636e-15 -2.22045e-15 -8.88178e-16 7.10543e-15 -8.88178e-16 -8.88178e-16 -2.55351e-15 0 -7.99361e-15 5.32907e-15 -6.21725e-15 3.55271e-15 8.88178e-15 1.77636e-15 -1.24345e-14 1.06581e-14 -3.55271e-15 -3.55271e-15 1.19904e-14 -5.32907e-15 -7.10543e-15 -1.77636e-15 -3.55271e-15 0 -4.44089e-15 7.10543e-15 2.22045e-15 -5.32907e-15 -3.55271e-15 -1.37668e-14 0 7.10543e-15 1.77636e-15 3.55271e-15 7.10543e-15 2.44249e-15 -7.77156e-16 5.32907e-15 1.26565e-14 -1.33227e-15 2.44249e-15 -7.77156e-16 -1.11022e-15 3.9968e-15 7.43849e-15 -1.33227e-15 -4.63518e-15 5.32907e-15 -6.43929e-15 -3.55271e-15 -8.10463e-15 -2.22045e-15 -8.04912e-15 3.9968e-15 -2.22045e-16 3.55271e-15 -3.55271e-15 -3.55271e-15 -5.10703e-15 -1.77636e-15 -5.32907e-15 -8.43769e-15 -5.32907e-15 1.77636e-15 -1.77636e-15 -3.55271e-15 -3.88578e-15 1.77636e-15 -1.77636e-15 -5.77316e-15 -5.32907e-15 8.88178e-15 2.66454e-15 -8.88178e-16 -1.42109e-14 -7.10543e-15 -3.55271e-15 -3.55271e-15 4.44089e-16 -7.10543e-15 0 -8.88178e-15 -3.55271e-15 7.10543e-15 5.32907e-15 3.55271e-15 -3.33067e-15 3.55271e-15 -3.55271e-15 3.9968e-15 -8.88178e-15 0 -8.88178e-16 1.77636e-15 3.55271e-15 1.77636e-15 8.88178e-15 -1.42109e-14 -6.99441e-15 8.88178e-16 -8.88178e-15 -2.22045e-16 -2.66454e-15 -1.06581e-14 5.77316e-15 1.77636e-15 1.27676e-15 -8.88178e-16 -9.76996e-15 -1.88738e-15 0 -3.9968e-15 -8.88178e-16 8.88178e-16 5.77316e-15 -3.55271e-15 1.77636e-15 -3.55271e-15 3.55271e-15 3.55271e-15 -7.10543e-15 -2.66454e-15 -8.88178e-15 0 8.88178e-16 0 1.77636e-15 2.66454e-15 0 -8.88178e-16 -4.44089e-15 -3.55271e-15 -1.33227e-15 -2.66454e-15 0 -7.10543e-15 7.10543e-15 -7.10543e-15 2.4869e-14 -3.55271e-15 -1.42109e-14 -1.59872e-14 -7.10543e-15 0 8.88178e-15 -1.42109e-14 6.88338e-15 3.55271e-15 -1.06581e-14 -7.99361e-15 1.77636e-15 7.10543e-15 8.88178e-16 1.77636e-15 1.06581e-14 3.55271e-15 1.06581e-14 -7.10543e-15 3.55271e-15 3.55271e-15 -1.77636e-15 -4.44089e-16 -3.55271e-15 -8.88178e-15 -5.32907e-15 1.77636e-15 3.33067e-16 -1.77636e-15 -4.44089e-15 2.22045e-16 -2.66454e-15 -5.32907e-15 -8.88178e-16 -3.55271e-15 2.66454e-15 7.10543e-15 5.32907e-15 -3.55271e-15 3.55271e-15 5.32907e-15 -3.55271e-15 -1.77636e-15 0 3.55271e-15 -1.77636e-15 -3.55271e-15 8.65974e-15 0 1.77636e-15 4.44089e-16 -1.77636e-15 0 4.44089e-16 2.66454e-15 6.21725e-15 1.42109e-14 -7.10543e-15 -4.26326e-14 -1.59872e-14 -3.55271e-14 -4.26326e-14 -6.39488e-14 -7.10543e-15 2.84217e-14 0 -7.10543e-15 -4.21885e-14 1.06581e-14 -3.55271e-14 -2.4869e-14 -3.55271e-15 -3.55271e-15 2.66454e-15 -5.32907e-15 2.13163e-14 </DataArray> 
</PointData> 
<Points> 
<DataArray type="Float32" NumberOfComponents="3"> 
0 0 0 0.0526316 0 0 0.105263 0 0 0.157895 0 0 0.210526 0 0 0.263158 0 0 0.315789 0 0 0.368421 0 0 0.421053 0 0 0.473684 0 0 0.526316 0 0 0.578947 0 0 0.631579 0 0 0.684211 0 0 0.736842 0 0 0.789474 0 0 0.842105 0 0 0.894737 0 0 0.947368 0 0 1 0 0 0 0.0526316 0 0.0526316 0.0554017 0 0.105263 0.0581717 0 0.157895 0.0609418 0 0.210526 0.0637119 0 0.263158 0.066482 0 0.315789 0.0692521 0 0.368421 0.0720222 0 0.421053 0.0747922 0 0.473684 0.0775623 0 0.526316 0.0803324 0 0.578947 0.0831025 0 0.631579 0.0858726 0 0.684211 0.0886427 0 0.736842 0.0914127 0 0.789474 0.0941828 0 0.842105 0.0969529 0 0.894737 0.099723 0 0.947368 0.102493 0 1 0.105263 0 0 0.105263 0 0.0526316 0.110803 0 0.105263 0.116343 0 0.157895 0.121884 0 0.210526 0.127424 0 0.263158 0.132964 0 0.315789 0.138504 0 0.368421 0.144044 0 0.421053 0.149584 0 0.473684 0.155125 0 0.526316 0.160665 0 0.578947 0.166205 0 0.631579 0.171745 0 0.684211 0.177285 0 0.736842 0.182825 0 0.789474 0.188366 0 0.842105 0.193906 0 0.894737 0.199446 0 0.947368 0.204986 0 1 0.210526 0 0 0.157895 0 0.0526316 0.166205 0 0.105263 0.174515 0 0.157895 0.182825 0 0.210526 0.191136 0 0.263158 0.199446 0 0.315789 0.207756 0 0.368421 0.216066 0 0.421053 0.224377 0 0.473684 0.232687 0 0.526316 0.240997 0 0.578947 0.249307 0 0.631579 0.257618 0 0.684211 0.265928 0 0.736842 0.274238 0 0.789474 0.282548 0 0.842105 0.290859 0 0.894737 0.299169 0 0.947368 0.307479 0 1 0.315789 0 0 0.210526 0 0.0526316 0.221607 0 0.105263 0.232687 0 0.157895 0.243767 0 0.210526 0.254848 0 0.263158 0.265928 0 0.315789 0.277008 0 0.368421 0.288089 0 0.421053 0.299169 0 0.473684 0.310249 0 0.526316 0.32133 0 0.578947 0.33241 0 0.631579 0.34349 0 0.684211 0.354571 0 0.736842 0.365651 0 0.789474 0.376731 0 0.842105 0.387812 0 0.894737 0.398892 0 0.947368 0.409972 0 1 0.421053 0 0 0.263158 0 0.0526316 0.277008 0 0.105263 0.290859 0 0.157895 0.304709 0 0.210526 0.31856 0 0.263158 0.33241 0 0.315789 0.34626 0 0.368421 0.360111 0 0.421053 0.373961 0 0.473684 0.387812 0 0.526316 0.401662 0 0.578947 0.415512 0 0.631579 0.429363 0 0.684211 0.443213 0 0.736842 0.457064 0 0.789474 0.470914 0 0.842105 0.484765 0 0.894737 0.498615 0 0.947368 0.512465 0 1 0.526316 0 0 0.315789 0 0.0526316 0.33241 0 0.105263 0.34903 0 0.157895 0.365651 0 0.210526 0.382271 0 0.263158 0.398892 0 0.315789 0.415512 0 0.368421 0.432133 0 0.421053 0.448753 0 0.473684 0.465374 0 0.526316 0.481994 0 0.578947 0.498615 0 0.631579 0.515235 0 0.684211 0.531856 0 0.736842 0.548476 0 0.789474 0.565097 0 0.842105 0.581717 0 0.894737 0.598338 0 0.947368 0.614958 0 1 0.631579 0 0 0.368421 0 0.0526316 0.387812 0 0.105263 0.407202 0 0.157895 0.426593 0 0.210526 0.445983 0 0.263158 0.465374 0 0.315789 0.484765 0 0.368421 0.504155 0 0.421053 0.523546 0 0.473684 0.542936 0 0.526316 0.562327 0 0.578947 0.581717 0 0.631579 0.601108 0 0.684211 0.620499 0 0.736842 0.639889 0 0.789474 0.65928 0 0.842105 0.67867 0 0.894737 0.698061 0 0.947368 0.717452 0 1 0.736842 0 0 0.421053 0 0.0526316 0.443213 0 0.105263 0.465374 0 0.157895 0.487535 0 0.210526 0.509695 0 0.263158 0.531856 0 0.315789 0.554017 0 0.368421 0.576177 0 0.421053 0.598338 0 0.473684 0.620499 0 0.526316 0.642659 0 0.578947 0.66482 0 0.631579 0.686981 0 0.684211 0.709141 0 0.736842 0.731302 0 0.789474 0.753463 0 0.842105 0.775623 0 0.894737 0.797784 0 0.947368 0.819945 0 1 0.842105 0 0 0.473684 0 0.0526316 0.498615 0 0.105263 0.523546 0 0.157895 0.548476 0 0.210526 0.573407 0 0.263158 0.598338 0 0.315789 0.623269 0 0.368421 0.648199 0 0.421053 0.67313 0 0.473684 0.698061 0 0.526316 0.722992 0 0.578947 0.747922 0 0.631579 0.772853 0 0.684211 0.797784 0 0.736842 0.822715 0 0.789474 0.847645 0 0.842105 0.872576 0 0.894737 0.897507 0 0.947368 0.922438 0 1 0.947368 0 0 0.526316 0 0.0526316 0.554017 0 0.105263 0.581717 0 0.157895 0.609418 0 0.210526 0.637119 0 0.263158 0.66482 0 0.315789 0.692521 0 0.368421 0.720222 0 0.421053 0.747922 0 0.473684 0.775623 0 0.526316 0.803324 0 0.578947 0.831025 0 0.631579 0.858726 0 0.684211 0.886427 0 0.736842 0.914127 0 0.789474 0.941828 0 0.842105 0.969529 0 0.894737 0.99723 0 0.947368 1.02493 0 1 1.05263 0 0 0.578947 0 0.0526316 0.609418 0 0.105263 0.639889 0 0.157895 0.67036 0 0.210526 0.700831 0 0.263158 0.731302 0 0.315789 0.761773 0 0.368421 0.792244 0 0.421053 0.822715 0 0.473684 0.853186 0 0.526316 0.883657 0 0.578947 0.914127 0 0.631579 0.944598 0 0.684211 0.975069 0 0.736842 1.00554 0 0.789474 1.03601 0 0.842105 1.06648 0 0.894737 1.09695 0 0.947368 1.12742 0 1 1.15789 0 0 0.631579 0 0.0526316 0.66482 0 0.105263 0.698061 0 0.157895 0.731302 0 0.210526 0.764543 0 0.263158 0.797784 0 0.315789 0.831025 0 0.368421 0.864266 0 0.421053 0.897507 0 0.473684 0.930748 0 0.526316 0.963989 0 0.578947 0.99723 0 0.631579 1.03047 0 0.684211 1.06371 0 0.736842 1.09695 0 0.789474 1.13019 0 0.842105 1.16343 0 0.894737 1.19668 0 0.947368 1.22992 0 1 1.26316 0 0 0.684211 0 0.0526316 0.720222 0 0.105263 0.756233 0 0.157895 0.792244 0 0.210526 0.828255 0 0.263158 0.864266 0 0.315789 0.900277 0 0.368421 0.936288 0 0.421053 0.972299 0 0.473684 1.00831 0 0.526316 1.04432 0 0.578947 1.08033 0 0.631579 1.11634 0 0.684211 1.15235 0 0.736842 1.18837 0 0.789474 1.22438 0 0.842105 1.26039 0 0.894737 1.2964 0 0.947368 1.33241 0 1 1.36842 0 0 0.736842 0 0.0526316 0.775623 0 0.105263 0.814404 0 0.157895 0.853186 0 0.210526 0.891967 0 0.263158 0.930748 0 0.315789 0.969529 0 0.368421 1.00831 0 0.421053 1.04709 0 0.473684 1.08587 0 0.526316 1.12465 0 0.578947 1.16343 0 0.631579 1.20222 0 0.684211 1.241 0 0.736842 1.27978 0 0.789474 1.31856 0 0.842105 1.35734 0 0.894737 1.39612 0 0.947368 1.4349 0 1 1.47368 0 0 0.789474 0 0.0526316 0.831025 0 0.105263 0.872576 0 0.157895 0.914127 0 0.210526 0.955679 0 0.263158 0.99723 0 0.315789 1.03878 0 0.368421 1.08033 0 0.421053 1.12188 0 0.473684 1.16343 0 0.526316 1.20499 0 0.578947 1.24654 0 0.631579 1.28809 0 0.684211 1.32964 0 0.736842 1.37119 0 0.789474 1.41274 0 0.842105 1.45429 0 0.894737 1.49584 0 0.947368 1.5374 0 1 1.57895 0 0 0.842105 0 0.0526316 0.886427 0 0.105263 0.930748 0 0.157895 0.975069 0 0.210526 1.01939 0 0.263158 1.06371 0 0.315789 1.10803 0 0.368421 1.15235 0 0.421053 1.19668 0 0.473684 1.241 0 0.526316 1.28532 0 0.578947 1.32964 0 0.631579 1.37396 0 0.684211 1.41828 0 0.736842 1.4626 0 0.789474 1.50693 0 0.842105 1.55125 0 0.894737 1.59557 0 0.947368 1.63989 0 1 1.68421 0 0 0.894737 0 0.0526316 0.941828 0 0.105263 0.98892 0 0.157895 1.03601 0 0.210526 1.0831 0 0.263158 1.13019 0 0.315789 1.17729 0 0.368421 1.22438 0 0.421053 1.27147 0 0.473684 1.31856 0 0.526316 1.36565 0 0.578947 1.41274 0 0.631579 1.45983 0 0.684211 1.50693 0 0.736842 1.55402 0 0.789474 1.60111 0 0.842105 1.6482 0 0.894737 1.69529 0 0.947368 1.74238 0 1 1.78947 0 0 0.947368 0 0.0526316 0.99723 0 0.105263 1.04709 0 0.157895 1.09695 0 0.210526 1.14681 0 0.263158 1.19668 0 0.315789 1.24654 0 0.368421 1.2964 0 0.421053 1.34626 0 0.473684 1.39612 0 0.526316 1.44598 0 0.578947 1.49584 0 0.631579 1.54571 0 0.684211 1.59557 0 0.736842 1.64543 0 0.789474 1.69529 0 0.842105 1.74515 0 0.894737 1.79501 0 0.947368 1.84488 0 1 1.89474 0 0 1 0 0.0526316 1.05263 0 0.105263 1.10526 0 0.157895 1.15789 0 0.210526 1.21053 0 0.263158 1.26316 0 0.315789 1.31579 0 0.368421 1.36842 0 0.421053 1.42105 0 0.473684 1.47368 0 0.526316 1.52632 0 0.578947 1.57895 0 0.631579 1.63158 0 0.684211 1.68421 0 0.736842 1.73684 0 0.789474 1.78947 0 0.842105 1.84211 0 0.894737 1.89474 0 0.947368 1.94737 0 1 2 0 
</DataArray>
</Points> 
</Piece> 
</StructuredGrid> 
</VTKFile> 
