<?xml version="1.0"?> 
<VTKFile type="StructuredGrid" version="0.1"> 
<StructuredGrid WholeExtent="0 19 0 19 0 0"> 
<Piece Extent="0 19 0 19 0 0"> 
<PointData>
<DataArray type="Float32" Name="velocity" format="ascii" NumberOfComponents="3"> 
1.30905e-12 1.1797e-12 0 0.0526073 -3.70775e-14 0 0.105069 -5.77693e-15 0 0.157239 6.43704e-15 0 0.208975 5.60296e-15 0 0.260131 3.05893e-15 0 0.310567 2.71526e-15 0 0.360143 3.97314e-15 0 0.408721 5.87665e-15 0 0.456168 8.08155e-15 0 0.502351 1.06036e-14 0 0.547143 1.34413e-14 0 0.59042 1.66799e-14 0 0.632061 2.1624e-14 0 0.671953 3.1055e-14 0 0.709983 4.60693e-14 0 0.746047 5.65623e-14 0 0.780044 3.85013e-14 0 0.811882 -3.04358e-14 0 0.841471 -2.24805e-12 0 -2.90184e-14 -0.0526073 0 0.0525266 -0.0552966 0 0.104891 -0.0578171 0 0.156948 -0.0601465 0 0.208551 -0.0622631 0 0.259556 -0.064146 0 0.309823 -0.0657751 0 0.359209 -0.0671312 0 0.407579 -0.0681962 0 0.454796 -0.068953 0 0.500731 -0.0693858 0 0.545255 -0.06948 0 0.588244 -0.0692223 0 0.62958 -0.0686009 0 0.669147 -0.0676055 0 0.706836 -0.0662273 0 0.742543 -0.0644592 0 0.776169 -0.0622957 0 0.807621 -0.059733 0 0.836813 -0.056769 0 -2.61817e-14 -0.105069 0 0.0522847 -0.110424 0 0.104359 -0.115439 0 0.156073 -0.12007 0 0.20728 -0.124274 0 0.257835 -0.128009 0 0.307593 -0.131235 0 0.356413 -0.133914 0 0.404157 -0.136011 0 0.45069 -0.137491 0 0.495881 -0.138324 0 0.539603 -0.13848 0 0.581734 -0.137934 0 0.622155 -0.136663 0 0.660754 -0.134646 0 0.697424 -0.131868 0 0.732065 -0.128313 0 0.764581 -0.123972 0 0.794884 -0.118839 0 0.822892 -0.112909 0 -6.39921e-14 -0.157239 0 0.0518823 -0.165212 0 0.103473 -0.17267 0 0.154619 -0.179547 0 0.205169 -0.18578 0 0.254974 -0.191305 0 0.303889 -0.196065 0 0.351769 -0.200003 0 0.398476 -0.203066 0 0.443874 -0.205203 0 0.487833 -0.20637 0 0.530227 -0.206525 0 0.570936 -0.20563 0 0.609844 -0.203652 0 0.646843 -0.200563 0 0.681831 -0.196339 0 0.714711 -0.190962 0 0.745396 -0.184417 0 0.773804 -0.176698 0 0.799861 -0.1678 0 -1.45361e-13 -0.208975 0 0.0513208 -0.219493 0 0.102237 -0.229317 0 0.152591 -0.238358 0 0.202225 -0.246532 0 0.250987 -0.253757 0 0.298728 -0.259956 0 0.345301 -0.265055 0 0.390567 -0.268985 0 0.434389 -0.271681 0 0.476639 -0.273085 0 0.517192 -0.273144 0 0.55593 -0.27181 0 0.592744 -0.269042 0 0.627531 -0.264805 0 0.660193 -0.25907 0 0.690644 -0.251817 0 0.718805 -0.24303 0 0.744603 -0.232702 0 0.767976 -0.220833 0 -2.70146e-13 -0.260131 0 0.0506018 -0.273101 0 0.100656 -0.285188 0 0.149996 -0.296284 0 0.198461 -0.306284 0 0.245891 -0.315088 0 0.292134 -0.322601 0 0.337043 -0.328732 0 0.380474 -0.3334 0 0.422292 -0.336525 0 0.46237 -0.338039 0 0.500587 -0.337878 0 0.536828 -0.335987 0 0.570991 -0.332319 0 0.602978 -0.326835 0 0.632704 -0.319505 0 0.660091 -0.310306 0 0.685071 -0.299227 0 0.707586 -0.286264 0 0.727589 -0.271421 0 -4.42456e-13 -0.310567 0 0.0497275 -0.32587 0 0.0987337 -0.340094 0 0.146845 -0.353109 0 0.193891 -0.364793 0 0.239709 -0.375026 0 0.284141 -0.383699 0 0.327037 -0.390705 0 0.368253 -0.395951 0 0.407656 -0.399346 0 0.445119 -0.400813 0 0.480526 -0.40028 0 0.51377 -0.397688 0 0.544753 -0.392987 0 0.57339 -0.386137 0 0.599606 -0.377108 0 0.623337 -0.365882 0 0.64453 -0.352452 0 0.663143 -0.336821 0 0.679148 -0.319005 0 -6.72892e-13 -0.360143 0 0.0487006 -0.37764 0 0.0964776 -0.39385 0 0.143148 -0.408624 0 0.188534 -0.421822 0 0.232467 -0.433308 0 0.274785 -0.442957 0 0.315335 -0.450653 0 0.353974 -0.456288 0 0.390569 -0.459766 0 0.424998 -0.461001 0 0.457149 -0.459919 0 0.486925 -0.456459 0 0.514238 -0.450569 0 0.539015 -0.442214 0 0.561194 -0.431368 0 0.580729 -0.41802 0 0.597584 -0.402174 0 0.61174 -0.383843 0 0.623189 -0.363058 0 -9.80165e-13 -0.408721 0 0.0475243 -0.428251 0 0.0938952 -0.446273 0 0.13892 -0.462622 0 0.182413 -0.477139 0 0.224198 -0.489675 0 0.264112 -0.500092 0 0.301998 -0.508263 0 0.337715 -0.514074 0 0.371133 -0.517421 0 0.402135 -0.518216 0 0.430617 -0.516384 0 0.456492 -0.511865 0 0.479685 -0.504613 0 0.500138 -0.494598 0 0.517808 -0.481804 0 0.532666 -0.466233 0 0.544701 -0.4479 0 0.553916 -0.426837 0 0.56033 -0.403091 0 -1.39042e-12 -0.456168 0 0.0462021 -0.477547 0 0.0909951 -0.497187 0 0.134176 -0.514902 0 0.175551 -0.53052 0 0.214939 -0.543878 0 0.252173 -0.55483 0 0.287096 -0.563239 0 0.319569 -0.568985 0 0.349466 -0.571964 0 0.376678 -0.572088 0 0.401113 -0.569285 0 0.422694 -0.563499 0 0.441365 -0.554695 0 0.457085 -0.542852 0 0.469831 -0.52797 0 0.4796 -0.510066 0 0.486405 -0.489175 0 0.490278 -0.46535 0 0.491269 -0.438662 0 -1.93625e-12 -0.502351 0 0.0447382 -0.525379 0 0.0877872 -0.546418 0 0.128933 -0.56527 0 0.167976 -0.581748 0 0.20473 -0.595679 0 0.239024 -0.606907 0 0.270705 -0.615293 0 0.299635 -0.620715 0 0.325697 -0.623069 0 0.348792 -0.622271 0 0.36884 -0.618256 0 0.385782 -0.61098 0 0.39958 -0.60042 0 0.410215 -0.586573 0 0.41769 -0.569456 0 0.42203 -0.549109 0 0.423276 -0.52559 0 0.421495 -0.49898 0 0.416769 -0.469377 0 -2.62566e-12 -0.547143 0 0.043137 -0.571598 0 0.0842822 -0.593802 0 0.123213 -0.61354 0 0.159721 -0.630615 0 0.193617 -0.644848 0 0.22473 -0.656076 0 0.25291 -0.664158 0 0.278026 -0.668975 0 0.29997 -0.670427 0 0.318656 -0.66844 0 0.334021 -0.66296 0 0.346026 -0.653959 0 0.354656 -0.641431 0 0.359919 -0.625396 0 0.361847 -0.605895 0 0.360495 -0.582994 0 0.355942 -0.556783 0 0.348288 -0.527372 0 0.337656 -0.494895 0 -3.43569e-12 -0.59042 0 0.0414034 -0.616063 0 0.0804922 -0.639176 0 0.117034 -0.659532 0 0.150817 -0.676924 0 0.181648 -0.691167 0 0.209359 -0.702099 0 0.233804 -0.709579 0 0.254863 -0.713494 0 0.272439 -0.713754 0 0.286465 -0.710298 0 0.296897 -0.703089 0 0.303721 -0.692118 0 0.306948 -0.677406 0 0.306618 -0.658996 0 0.302797 -0.636963 0 0.295575 -0.611403 0 0.28507 -0.582442 0 0.271425 -0.550229 0 0.254805 -0.514936 0 -4.44623e-12 -0.632061 0 0.0395428 -0.658638 0 0.0764299 -0.682388 0 0.110421 -0.703075 0 0.141301 -0.720486 0 0.168877 -0.734433 0 0.192984 -0.744756 0 0.213486 -0.751321 0 0.230274 -0.754024 0 0.24327 -0.75279 0 0.252426 -0.747574 0 0.257724 -0.738364 0 0.259177 -0.725177 0 0.25683 -0.708061 0 0.250757 -0.687094 0 0.241062 -0.662385 0 0.227878 -0.63407 0 0.211366 -0.602315 0 0.191714 -0.567311 0 0.169133 -0.529276 0 -5.98868e-12 -0.671953 0 0.0375608 -0.699192 0 0.0721089 -0.723291 0 0.103399 -0.744007 0 0.131212 -0.761124 0 0.155359 -0.774454 0 0.175684 -0.783843 0 0.192061 -0.789167 0 0.204398 -0.790338 0 0.212639 -0.787298 0 0.216759 -0.780029 0 0.216772 -0.768544 0 0.212723 -0.752892 0 0.204695 -0.733156 0 0.192802 -0.709454 0 0.177191 -0.681935 0 0.158041 -0.650781 0 0.135562 -0.616203 0 0.10999 -0.578439 0 0.0815886 -0.537757 0 -8.12156e-12 -0.709983 0 0.0354636 -0.7376 0 0.0675441 -0.761748 0 0.0959919 -0.782178 0 0.12059 -0.798674 0 0.141155 -0.811054 0 0.157542 -0.819173 0 0.16964 -0.822922 0 0.177379 -0.822233 0 0.180728 -0.817073 0 0.179694 -0.807453 0 0.174323 -0.793419 0 0.164702 -0.775057 0 0.150953 -0.752494 0 0.133236 -0.72589 0 0.111749 -0.695441 0 0.08672 -0.66138 0 0.0584107 -0.623967 0 0.027112 -0.583496 0 -0.00685879 -0.540284 0 -9.53796e-12 -0.746047 0 0.0332575 -0.773745 0 0.0627507 -0.797627 0 0.0882288 -0.817444 0 0.109479 -0.832982 0 0.126328 -0.84407 0 0.138644 -0.850575 0 0.146339 -0.85241 0 0.149369 -0.84953 0 0.147731 -0.841935 0 0.14147 -0.829668 0 0.130672 -0.812817 0 0.115466 -0.791512 0 0.0960248 -0.765923 0 0.0725584 -0.736264 0 0.0453166 -0.702783 0 0.0145841 -0.665766 0 -0.0193209 -0.625532 0 -0.0560506 -0.582429 0 -0.0952303 -0.536831 0 -9.55555e-12 -0.780044 0 0.0309494 -0.807515 0 0.0577451 -0.830809 0 0.0801381 -0.849675 0 0.0979234 -0.863911 0 0.110942 -0.873356 0 0.119082 -0.877899 0 0.12228 -0.877478 0 0.120523 -0.872078 0 0.113846 -0.861734 0 0.102334 -0.846533 0 0.0861185 -0.826606 0 0.0653801 -0.802133 0 0.040343 -0.773338 0 0.0112746 -0.74049 0 -0.0215175 -0.703896 0 -0.0576887 -0.6639 0 -0.0968606 -0.620881 0 -0.138625 -0.575248 0 -0.182548 -0.527435 0 -1.15326e-11 -0.811882 0 0.0285464 -0.838808 0 0.0525441 -0.861179 0 0.0717499 -0.878752 0 0.0859707 -0.891334 0 0.0950659 -0.898784 0 0.0989486 -0.901015 0 0.0975868 -0.897996 0 0.0910034 -0.889749 0 0.0792763 -0.876352 0 0.0625373 -0.857937 0 0.0409708 -0.834689 0 0.0148121 -0.806842 0 -0.0156555 -0.774681 0 -0.0501033 -0.738533 0 -0.0881608 -0.698769 0 -0.12942 -0.655798 0 -0.173438 -0.610061 0 -0.219744 -0.56203 0 -0.267844 -0.5122 0 2.77403e-11 -0.841471 0 0.0260557 -0.867527 0 0.0471653 -0.888636 0 0.0630953 -0.904566 0 0.0736692 -0.91514 0 0.07877 -0.920241 0 0.0783412 -0.919812 0 0.0723875 -0.913859 0 0.060975 -0.902446 0 0.0442298 -0.885701 0 0.0223375 -0.863808 0 -0.00445974 -0.837011 0 -0.0358652 -0.805606 0 -0.0715312 -0.76994 0 -0.111063 -0.730408 0 -0.154023 -0.687448 0 -0.199935 -0.641536 0 -0.248292 -0.593179 0 -0.298557 -0.542914 0 -0.350175 -0.491295 0 </DataArray> 
<DataArray type="Float32" Name="divergence" format="ascii" NumberOfComponents="1"> 
4.64373e-12 4.58111e-12 4.58145e-12 4.6092e-12 4.60543e-12 4.60476e-12 4.60787e-12 4.59988e-12 4.61142e-12 4.58922e-12 4.58877e-12 4.63007e-12 4.61675e-12 4.60876e-12 4.59011e-12 4.55103e-12 4.61831e-12 4.63274e-12 4.58655e-12 4.57234e-12 4.58711e-12 4.6084e-12 4.60937e-12 4.6019e-12 4.59904e-12 4.60521e-12 4.59044e-12 4.61142e-12 4.59877e-12 4.60654e-12 4.60587e-12 4.59432e-12 4.58833e-12 4.60576e-12 4.60343e-12 4.6283e-12 4.60043e-12 4.57456e-12 4.5759e-12 4.718e-12 4.62419e-12 4.58283e-12 4.59599e-12 4.60121e-12 4.60629e-12 4.61842e-12 4.59965e-12 4.59932e-12 4.59988e-12 4.59099e-12 4.60376e-12 4.6092e-12 4.60698e-12 4.59427e-12 4.59677e-12 4.62075e-12 4.60512e-12 4.57501e-12 4.59366e-12 4.68248e-12 4.60254e-12 4.59832e-12 4.59821e-12 4.59832e-12 4.60965e-12 4.61242e-12 4.60554e-12 4.5961e-12 4.59882e-12 4.60648e-12 4.59355e-12 4.60848e-12 4.59993e-12 4.6001e-12 4.60598e-12 4.58977e-12 4.5991e-12 4.61653e-12 4.6092e-12 4.59011e-12 4.59721e-12 4.61289e-12 4.61747e-12 4.60521e-12 4.59116e-12 4.58295e-12 4.59988e-12 4.60865e-12 4.60987e-12 4.60754e-12 4.59677e-12 4.59188e-12 4.60976e-12 4.60254e-12 4.5981e-12 4.59388e-12 4.59943e-12 4.60698e-12 4.60432e-12 4.583e-12 4.55769e-12 4.63962e-12 4.61098e-12 4.60498e-12 4.58233e-12 4.58378e-12 4.59366e-12 4.61037e-12 4.62222e-12 4.60498e-12 4.59982e-12 4.5921e-12 4.60215e-12 4.61121e-12 4.58655e-12 4.60187e-12 4.59989e-12 4.59566e-12 4.61009e-12 4.60432e-12 4.59899e-12 4.60787e-12 4.59721e-12 4.58922e-12 4.61431e-12 4.61919e-12 4.60076e-12 4.58966e-12 4.6092e-12 4.60565e-12 4.60254e-12 4.586e-12 4.60654e-12 4.6021e-12 4.59682e-12 4.60609e-12 4.60099e-12 4.59763e-12 4.60826e-12 4.62563e-12 4.63096e-12 4.58097e-12 4.60521e-12 4.60254e-12 4.60865e-12 4.59138e-12 4.60898e-12 4.60632e-12 4.59144e-12 4.59877e-12 4.59277e-12 4.6152e-12 4.60165e-12 4.59299e-12 4.60965e-12 4.59732e-12 4.60232e-12 4.60609e-12 4.59832e-12 4.61142e-12 4.67892e-12 4.54858e-12 4.58433e-12 4.62874e-12 4.59099e-12 4.5719e-12 4.58167e-12 4.63374e-12 4.62719e-12 4.58922e-12 4.60143e-12 4.60709e-12 4.57678e-12 4.60734e-12 4.62852e-12 4.59077e-12 4.59036e-12 4.61897e-12 4.61124e-12 4.51195e-12 4.57145e-12 4.60476e-12 4.6021e-12 4.61942e-12 4.56968e-12 4.58034e-12 4.59011e-12 4.6172e-12 4.61586e-12 4.57767e-12 4.61409e-12 4.60698e-12 4.60432e-12 4.5981e-12 4.61076e-12 4.58922e-12 4.5981e-12 4.6203e-12 4.61986e-12 4.55458e-12 4.60965e-12 4.60523e-12 4.60565e-12 4.58655e-12 4.62508e-12 4.62275e-12 4.61808e-12 4.58611e-12 4.58727e-12 4.62519e-12 4.58944e-12 4.58744e-12 4.60565e-12 4.60654e-12 4.58655e-12 4.60931e-12 4.60654e-12 4.59144e-12 4.59338e-12 4.70379e-12 4.62563e-12 4.61564e-12 4.6021e-12 4.59188e-12 4.6303e-12 4.62208e-12 4.59899e-12 4.59166e-12 4.61053e-12 4.60787e-12 4.59427e-12 4.6152e-12 4.61764e-12 4.59435e-12 4.58478e-12 4.60276e-12 4.61642e-12 4.58783e-12 4.58777e-12 4.66827e-12 4.58211e-12 4.59721e-12 4.61498e-12 4.59544e-12 4.60521e-12 4.61942e-12 4.59366e-12 4.59854e-12 4.58167e-12 4.60654e-12 4.60387e-12 4.61942e-12 4.6132e-12 4.60432e-12 4.56657e-12 4.59766e-12 4.61231e-12 4.59677e-12 4.60298e-12 4.59366e-12 4.6203e-12 4.59255e-12 4.589e-12 4.59721e-12 4.61031e-12 4.60931e-12 4.61542e-12 4.58811e-12 4.60759e-12 4.59854e-12 4.59943e-12 4.59077e-12 4.58611e-12 4.60121e-12 4.62652e-12 4.60876e-12 4.59455e-12 4.60043e-12 4.59505e-12 4.62919e-12 4.57767e-12 4.6223e-12 4.61853e-12 4.62297e-12 4.57678e-12 4.5377e-12 4.58478e-12 4.6555e-12 4.63007e-12 4.5981e-12 4.60676e-12 4.59588e-12 4.59366e-12 4.60357e-12 4.61609e-12 4.58478e-12 4.60007e-12 4.62208e-12 4.6172e-12 4.59899e-12 4.57856e-12 4.64251e-12 4.5981e-12 4.6283e-12 4.583e-12 4.58655e-12 4.583e-12 4.6243e-12 4.6132e-12 4.58034e-12 4.62252e-12 4.59011e-12 4.5981e-12 4.60298e-12 4.61853e-12 4.61187e-12 4.59699e-12 4.5981e-12 4.6132e-12 4.59721e-12 4.56024e-12 4.64584e-12 4.62785e-12 4.59099e-12 4.58811e-12 4.60798e-12 4.60032e-12 4.60121e-12 4.59774e-12 4.6021e-12 4.59366e-12 4.60684e-12 4.60432e-12 4.60387e-12 4.5931e-12 4.6001e-12 4.60343e-12 4.6016e-12 4.60609e-12 4.59366e-12 4.64428e-12 4.50684e-12 4.60076e-12 4.58478e-12 4.64251e-12 4.6132e-12 4.62208e-12 4.58888e-12 4.60609e-12 4.61942e-12 4.59799e-12 4.61498e-12 4.60654e-12 4.60208e-12 4.58478e-12 4.59632e-12 4.60415e-12 4.60854e-12 4.58811e-12 4.60787e-12 4.70379e-12 4.45244e-12 4.5306e-12 4.58922e-12 4.65494e-12 4.62741e-12 4.67448e-12 4.52571e-12 4.54481e-12 4.6203e-12 4.60143e-12 4.62386e-12 4.60343e-12 4.59066e-12 4.59321e-12 4.58078e-12 4.6198e-12 4.60876e-12 4.58877e-12 4.59721e-12 4.51905e-12 4.77129e-12 4.85301e-12 4.63274e-12 4.4249e-12 4.583e-12 4.51195e-12 4.65938e-12 4.72511e-12 4.53326e-12 4.63363e-12 4.71623e-12 4.66827e-12 4.56435e-12 4.59366e-12 4.68603e-12 4.54681e-12 4.5679e-12 4.62341e-12 4.68603e-12 </DataArray> 
</PointData> 
<Points> 
<DataArray type="Float32" NumberOfComponents="3"> 
0 0 0 0.0526316 0 0 0.105263 0 0 0.157895 0 0 0.210526 0 0 0.263158 0 0 0.315789 0 0 0.368421 0 0 0.421053 0 0 0.473684 0 0 0.526316 0 0 0.578947 0 0 0.631579 0 0 0.684211 0 0 0.736842 0 0 0.789474 0 0 0.842105 0 0 0.894737 0 0 0.947368 0 0 1 0 0 0 0.0526316 0 0.0526316 0.0554017 0 0.105263 0.0581717 0 0.157895 0.0609418 0 0.210526 0.0637119 0 0.263158 0.066482 0 0.315789 0.0692521 0 0.368421 0.0720222 0 0.421053 0.0747922 0 0.473684 0.0775623 0 0.526316 0.0803324 0 0.578947 0.0831025 0 0.631579 0.0858726 0 0.684211 0.0886427 0 0.736842 0.0914127 0 0.789474 0.0941828 0 0.842105 0.0969529 0 0.894737 0.099723 0 0.947368 0.102493 0 1 0.105263 0 0 0.105263 0 0.0526316 0.110803 0 0.105263 0.116343 0 0.157895 0.121884 0 0.210526 0.127424 0 0.263158 0.132964 0 0.315789 0.138504 0 0.368421 0.144044 0 0.421053 0.149584 0 0.473684 0.155125 0 0.526316 0.160665 0 0.578947 0.166205 0 0.631579 0.171745 0 0.684211 0.177285 0 0.736842 0.182825 0 0.789474 0.188366 0 0.842105 0.193906 0 0.894737 0.199446 0 0.947368 0.204986 0 1 0.210526 0 0 0.157895 0 0.0526316 0.166205 0 0.105263 0.174515 0 0.157895 0.182825 0 0.210526 0.191136 0 0.263158 0.199446 0 0.315789 0.207756 0 0.368421 0.216066 0 0.421053 0.224377 0 0.473684 0.232687 0 0.526316 0.240997 0 0.578947 0.249307 0 0.631579 0.257618 0 0.684211 0.265928 0 0.736842 0.274238 0 0.789474 0.282548 0 0.842105 0.290859 0 0.894737 0.299169 0 0.947368 0.307479 0 1 0.315789 0 0 0.210526 0 0.0526316 0.221607 0 0.105263 0.232687 0 0.157895 0.243767 0 0.210526 0.254848 0 0.263158 0.265928 0 0.315789 0.277008 0 0.368421 0.288089 0 0.421053 0.299169 0 0.473684 0.310249 0 0.526316 0.32133 0 0.578947 0.33241 0 0.631579 0.34349 0 0.684211 0.354571 0 0.736842 0.365651 0 0.789474 0.376731 0 0.842105 0.387812 0 0.894737 0.398892 0 0.947368 0.409972 0 1 0.421053 0 0 0.263158 0 0.0526316 0.277008 0 0.105263 0.290859 0 0.157895 0.304709 0 0.210526 0.31856 0 0.263158 0.33241 0 0.315789 0.34626 0 0.368421 0.360111 0 0.421053 0.373961 0 0.473684 0.387812 0 0.526316 0.401662 0 0.578947 0.415512 0 0.631579 0.429363 0 0.684211 0.443213 0 0.736842 0.457064 0 0.789474 0.470914 0 0.842105 0.484765 0 0.894737 0.498615 0 0.947368 0.512465 0 1 0.526316 0 0 0.315789 0 0.0526316 0.33241 0 0.105263 0.34903 0 0.157895 0.365651 0 0.210526 0.382271 0 0.263158 0.398892 0 0.315789 0.415512 0 0.368421 0.432133 0 0.421053 0.448753 0 0.473684 0.465374 0 0.526316 0.481994 0 0.578947 0.498615 0 0.631579 0.515235 0 0.684211 0.531856 0 0.736842 0.548476 0 0.789474 0.565097 0 0.842105 0.581717 0 0.894737 0.598338 0 0.947368 0.614958 0 1 0.631579 0 0 0.368421 0 0.0526316 0.387812 0 0.105263 0.407202 0 0.157895 0.426593 0 0.210526 0.445983 0 0.263158 0.465374 0 0.315789 0.484765 0 0.368421 0.504155 0 0.421053 0.523546 0 0.473684 0.542936 0 0.526316 0.562327 0 0.578947 0.581717 0 0.631579 0.601108 0 0.684211 0.620499 0 0.736842 0.639889 0 0.789474 0.65928 0 0.842105 0.67867 0 0.894737 0.698061 0 0.947368 0.717452 0 1 0.736842 0 0 0.421053 0 0.0526316 0.443213 0 0.105263 0.465374 0 0.157895 0.487535 0 0.210526 0.509695 0 0.263158 0.531856 0 0.315789 0.554017 0 0.368421 0.576177 0 0.421053 0.598338 0 0.473684 0.620499 0 0.526316 0.642659 0 0.578947 0.66482 0 0.631579 0.686981 0 0.684211 0.709141 0 0.736842 0.731302 0 0.789474 0.753463 0 0.842105 0.775623 0 0.894737 0.797784 0 0.947368 0.819945 0 1 0.842105 0 0 0.473684 0 0.0526316 0.498615 0 0.105263 0.523546 0 0.157895 0.548476 0 0.210526 0.573407 0 0.263158 0.598338 0 0.315789 0.623269 0 0.368421 0.648199 0 0.421053 0.67313 0 0.473684 0.698061 0 0.526316 0.722992 0 0.578947 0.747922 0 0.631579 0.772853 0 0.684211 0.797784 0 0.736842 0.822715 0 0.789474 0.847645 0 0.842105 0.872576 0 0.894737 0.897507 0 0.947368 0.922438 0 1 0.947368 0 0 0.526316 0 0.0526316 0.554017 0 0.105263 0.581717 0 0.157895 0.609418 0 0.210526 0.637119 0 0.263158 0.66482 0 0.315789 0.692521 0 0.368421 0.720222 0 0.421053 0.747922 0 0.473684 0.775623 0 0.526316 0.803324 0 0.578947 0.831025 0 0.631579 0.858726 0 0.684211 0.886427 0 0.736842 0.914127 0 0.789474 0.941828 0 0.842105 0.969529 0 0.894737 0.99723 0 0.947368 1.02493 0 1 1.05263 0 0 0.578947 0 0.0526316 0.609418 0 0.105263 0.639889 0 0.157895 0.67036 0 0.210526 0.700831 0 0.263158 0.731302 0 0.315789 0.761773 0 0.368421 0.792244 0 0.421053 0.822715 0 0.473684 0.853186 0 0.526316 0.883657 0 0.578947 0.914127 0 0.631579 0.944598 0 0.684211 0.975069 0 0.736842 1.00554 0 0.789474 1.03601 0 0.842105 1.06648 0 0.894737 1.09695 0 0.947368 1.12742 0 1 1.15789 0 0 0.631579 0 0.0526316 0.66482 0 0.105263 0.698061 0 0.157895 0.731302 0 0.210526 0.764543 0 0.263158 0.797784 0 0.315789 0.831025 0 0.368421 0.864266 0 0.421053 0.897507 0 0.473684 0.930748 0 0.526316 0.963989 0 0.578947 0.99723 0 0.631579 1.03047 0 0.684211 1.06371 0 0.736842 1.09695 0 0.789474 1.13019 0 0.842105 1.16343 0 0.894737 1.19668 0 0.947368 1.22992 0 1 1.26316 0 0 0.684211 0 0.0526316 0.720222 0 0.105263 0.756233 0 0.157895 0.792244 0 0.210526 0.828255 0 0.263158 0.864266 0 0.315789 0.900277 0 0.368421 0.936288 0 0.421053 0.972299 0 0.473684 1.00831 0 0.526316 1.04432 0 0.578947 1.08033 0 0.631579 1.11634 0 0.684211 1.15235 0 0.736842 1.18837 0 0.789474 1.22438 0 0.842105 1.26039 0 0.894737 1.2964 0 0.947368 1.33241 0 1 1.36842 0 0 0.736842 0 0.0526316 0.775623 0 0.105263 0.814404 0 0.157895 0.853186 0 0.210526 0.891967 0 0.263158 0.930748 0 0.315789 0.969529 0 0.368421 1.00831 0 0.421053 1.04709 0 0.473684 1.08587 0 0.526316 1.12465 0 0.578947 1.16343 0 0.631579 1.20222 0 0.684211 1.241 0 0.736842 1.27978 0 0.789474 1.31856 0 0.842105 1.35734 0 0.894737 1.39612 0 0.947368 1.4349 0 1 1.47368 0 0 0.789474 0 0.0526316 0.831025 0 0.105263 0.872576 0 0.157895 0.914127 0 0.210526 0.955679 0 0.263158 0.99723 0 0.315789 1.03878 0 0.368421 1.08033 0 0.421053 1.12188 0 0.473684 1.16343 0 0.526316 1.20499 0 0.578947 1.24654 0 0.631579 1.28809 0 0.684211 1.32964 0 0.736842 1.37119 0 0.789474 1.41274 0 0.842105 1.45429 0 0.894737 1.49584 0 0.947368 1.5374 0 1 1.57895 0 0 0.842105 0 0.0526316 0.886427 0 0.105263 0.930748 0 0.157895 0.975069 0 0.210526 1.01939 0 0.263158 1.06371 0 0.315789 1.10803 0 0.368421 1.15235 0 0.421053 1.19668 0 0.473684 1.241 0 0.526316 1.28532 0 0.578947 1.32964 0 0.631579 1.37396 0 0.684211 1.41828 0 0.736842 1.4626 0 0.789474 1.50693 0 0.842105 1.55125 0 0.894737 1.59557 0 0.947368 1.63989 0 1 1.68421 0 0 0.894737 0 0.0526316 0.941828 0 0.105263 0.98892 0 0.157895 1.03601 0 0.210526 1.0831 0 0.263158 1.13019 0 0.315789 1.17729 0 0.368421 1.22438 0 0.421053 1.27147 0 0.473684 1.31856 0 0.526316 1.36565 0 0.578947 1.41274 0 0.631579 1.45983 0 0.684211 1.50693 0 0.736842 1.55402 0 0.789474 1.60111 0 0.842105 1.6482 0 0.894737 1.69529 0 0.947368 1.74238 0 1 1.78947 0 0 0.947368 0 0.0526316 0.99723 0 0.105263 1.04709 0 0.157895 1.09695 0 0.210526 1.14681 0 0.263158 1.19668 0 0.315789 1.24654 0 0.368421 1.2964 0 0.421053 1.34626 0 0.473684 1.39612 0 0.526316 1.44598 0 0.578947 1.49584 0 0.631579 1.54571 0 0.684211 1.59557 0 0.736842 1.64543 0 0.789474 1.69529 0 0.842105 1.74515 0 0.894737 1.79501 0 0.947368 1.84488 0 1 1.89474 0 0 1 0 0.0526316 1.05263 0 0.105263 1.10526 0 0.157895 1.15789 0 0.210526 1.21053 0 0.263158 1.26316 0 0.315789 1.31579 0 0.368421 1.36842 0 0.421053 1.42105 0 0.473684 1.47368 0 0.526316 1.52632 0 0.578947 1.57895 0 0.631579 1.63158 0 0.684211 1.68421 0 0.736842 1.73684 0 0.789474 1.78947 0 0.842105 1.84211 0 0.894737 1.89474 0 0.947368 1.94737 0 1 2 0 
</DataArray>
</Points> 
</Piece> 
</StructuredGrid> 
</VTKFile> 
