<?xml version="1.0"?> 
<VTKFile type="StructuredGrid" version="0.1"> 
<StructuredGrid WholeExtent="0 19 0 19 0 0"> 
<Piece Extent="0 19 0 19 0 0"> 
<PointData>
<DataArray type="Float32" Name="velocity" format="ascii" NumberOfComponents="3"> 
1.96657e-10 5.66188e-11 0 0.0526073 4.79331e-13 0 0.105069 -8.1018e-14 0 0.157239 5.04558e-14 0 0.208975 8.0324e-14 0 0.260131 1.19526e-13 0 0.310567 1.7126e-13 0 0.360143 2.353e-13 0 0.408721 3.13567e-13 0 0.456168 4.07885e-13 0 0.502351 5.20172e-13 0 0.547143 6.52312e-13 0 0.59042 8.06282e-13 0 0.632061 9.83972e-13 0 0.671953 1.18731e-12 0 0.709983 1.41528e-12 0 0.746047 1.66039e-12 0 0.780044 2.34573e-12 0 0.811882 1.13672e-13 0 0.841471 8.28634e-11 0 6.18831e-11 -0.0526073 0 0.0525266 -0.0552967 0 0.104891 -0.0578171 0 0.156948 -0.0601465 0 0.208551 -0.0622631 0 0.259556 -0.064146 0 0.309823 -0.0657751 0 0.359209 -0.0671312 0 0.407579 -0.0681962 0 0.454796 -0.068953 0 0.500731 -0.0693858 0 0.545255 -0.06948 0 0.588244 -0.0692223 0 0.62958 -0.0686009 0 0.669147 -0.0676055 0 0.706836 -0.0662273 0 0.742543 -0.0644592 0 0.776169 -0.0622957 0 0.807621 -0.059733 0 0.836813 -0.056769 0 -4.05841e-11 -0.105069 0 0.0522847 -0.110424 0 0.104359 -0.115439 0 0.156073 -0.12007 0 0.20728 -0.124274 0 0.257835 -0.128009 0 0.307593 -0.131235 0 0.356413 -0.133914 0 0.404157 -0.136011 0 0.45069 -0.137491 0 0.495881 -0.138324 0 0.539603 -0.13848 0 0.581734 -0.137934 0 0.622155 -0.136663 0 0.660754 -0.134646 0 0.697424 -0.131868 0 0.732065 -0.128313 0 0.764581 -0.123972 0 0.794884 -0.118839 0 0.822892 -0.112909 0 -2.13147e-10 -0.157239 0 0.0518823 -0.165212 0 0.103473 -0.17267 0 0.154619 -0.179547 0 0.205169 -0.18578 0 0.254974 -0.191305 0 0.303889 -0.196065 0 0.351769 -0.200003 0 0.398476 -0.203066 0 0.443874 -0.205203 0 0.487833 -0.20637 0 0.530227 -0.206525 0 0.570936 -0.20563 0 0.609844 -0.203652 0 0.646843 -0.200563 0 0.68183 -0.196339 0 0.714711 -0.190962 0 0.745396 -0.184417 0 0.773804 -0.176698 0 0.799861 -0.1678 0 -4.61239e-10 -0.208975 0 0.0513208 -0.219493 0 0.102237 -0.229317 0 0.152591 -0.238358 0 0.202225 -0.246532 0 0.250987 -0.253757 0 0.298728 -0.259956 0 0.345301 -0.265055 0 0.390567 -0.268985 0 0.434389 -0.271681 0 0.476639 -0.273085 0 0.517192 -0.273144 0 0.55593 -0.27181 0 0.592744 -0.269042 0 0.627531 -0.264805 0 0.660193 -0.25907 0 0.690644 -0.251817 0 0.718805 -0.24303 0 0.744603 -0.232702 0 0.767976 -0.220833 0 -7.90623e-10 -0.260131 0 0.0506018 -0.273101 0 0.100656 -0.285188 0 0.149996 -0.296284 0 0.198461 -0.306284 0 0.245891 -0.315088 0 0.292134 -0.322601 0 0.337043 -0.328732 0 0.380474 -0.3334 0 0.422292 -0.336525 0 0.46237 -0.338039 0 0.500587 -0.337878 0 0.536828 -0.335987 0 0.570991 -0.332319 0 0.602978 -0.326835 0 0.632704 -0.319505 0 0.660091 -0.310306 0 0.685071 -0.299227 0 0.707586 -0.286264 0 0.72759 -0.271421 0 -1.20825e-09 -0.310567 0 0.0497275 -0.32587 0 0.0987337 -0.340094 0 0.146845 -0.35311 0 0.193891 -0.364793 0 0.239709 -0.375026 0 0.284141 -0.383699 0 0.327037 -0.390705 0 0.368253 -0.395951 0 0.407656 -0.399346 0 0.445119 -0.400813 0 0.480526 -0.40028 0 0.51377 -0.397688 0 0.544753 -0.392987 0 0.57339 -0.386137 0 0.599606 -0.377108 0 0.623337 -0.365882 0 0.64453 -0.352452 0 0.663143 -0.336821 0 0.679148 -0.319005 0 -1.72167e-09 -0.360143 0 0.0487006 -0.37764 0 0.0964777 -0.39385 0 0.143148 -0.408624 0 0.188534 -0.421822 0 0.232467 -0.433308 0 0.274785 -0.442957 0 0.315335 -0.450653 0 0.353974 -0.456288 0 0.390569 -0.459766 0 0.424998 -0.461001 0 0.457149 -0.459919 0 0.486925 -0.456459 0 0.514238 -0.450569 0 0.539015 -0.442214 0 0.561194 -0.431368 0 0.580729 -0.41802 0 0.597584 -0.402174 0 0.61174 -0.383843 0 0.623189 -0.363057 0 -2.33838e-09 -0.408721 0 0.0475243 -0.428251 0 0.0938952 -0.446273 0 0.13892 -0.462622 0 0.182413 -0.477139 0 0.224198 -0.489675 0 0.264112 -0.500092 0 0.301998 -0.508263 0 0.337715 -0.514073 0 0.371133 -0.517421 0 0.402135 -0.518216 0 0.430617 -0.516384 0 0.456492 -0.511865 0 0.479685 -0.504613 0 0.500138 -0.494598 0 0.517808 -0.481804 0 0.532666 -0.466233 0 0.544701 -0.4479 0 0.553916 -0.426837 0 0.56033 -0.403091 0 -3.06512e-09 -0.456168 0 0.0462021 -0.477547 0 0.0909951 -0.497187 0 0.134176 -0.514902 0 0.175551 -0.53052 0 0.214939 -0.543878 0 0.252173 -0.55483 0 0.287096 -0.563239 0 0.319569 -0.568985 0 0.349466 -0.571964 0 0.376678 -0.572088 0 0.401112 -0.569285 0 0.422694 -0.563499 0 0.441365 -0.554695 0 0.457085 -0.542852 0 0.469831 -0.52797 0 0.4796 -0.510066 0 0.486405 -0.489175 0 0.490278 -0.46535 0 0.491269 -0.438662 0 -3.90698e-09 -0.502351 0 0.0447382 -0.525379 0 0.0877872 -0.546418 0 0.128933 -0.56527 0 0.167977 -0.581748 0 0.20473 -0.595679 0 0.239024 -0.606907 0 0.270705 -0.615293 0 0.299635 -0.620715 0 0.325697 -0.623069 0 0.348792 -0.622271 0 0.36884 -0.618256 0 0.385782 -0.61098 0 0.39958 -0.60042 0 0.410215 -0.586573 0 0.41769 -0.569456 0 0.42203 -0.549109 0 0.423277 -0.52559 0 0.421495 -0.49898 0 0.416769 -0.469377 0 -4.86646e-09 -0.547143 0 0.043137 -0.571598 0 0.0842822 -0.593801 0 0.123213 -0.61354 0 0.159721 -0.630615 0 0.193617 -0.644848 0 0.22473 -0.656076 0 0.25291 -0.664158 0 0.278026 -0.668975 0 0.29997 -0.670427 0 0.318656 -0.66844 0 0.334021 -0.66296 0 0.346026 -0.653959 0 0.354656 -0.641431 0 0.359919 -0.625396 0 0.361847 -0.605895 0 0.360495 -0.582994 0 0.355942 -0.556783 0 0.348288 -0.527372 0 0.337656 -0.494896 0 -5.9424e-09 -0.59042 0 0.0414034 -0.616063 0 0.0804922 -0.639176 0 0.117034 -0.659532 0 0.150817 -0.676924 0 0.181648 -0.691167 0 0.209359 -0.702099 0 0.233804 -0.709579 0 0.254863 -0.713494 0 0.272439 -0.713754 0 0.286465 -0.710298 0 0.296897 -0.703089 0 0.303721 -0.692118 0 0.306948 -0.677406 0 0.306618 -0.658996 0 0.302797 -0.636963 0 0.295575 -0.611403 0 0.28507 -0.582442 0 0.271425 -0.550229 0 0.254805 -0.514936 0 -7.12891e-09 -0.632061 0 0.0395428 -0.658638 0 0.0764299 -0.682388 0 0.110421 -0.703075 0 0.141301 -0.720486 0 0.168877 -0.734433 0 0.192984 -0.744756 0 0.213486 -0.751321 0 0.230274 -0.754024 0 0.24327 -0.752789 0 0.252426 -0.747574 0 0.257724 -0.738364 0 0.259177 -0.725177 0 0.25683 -0.708061 0 0.250757 -0.687094 0 0.241062 -0.662384 0 0.227878 -0.63407 0 0.211366 -0.602315 0 0.191714 -0.567311 0 0.169133 -0.529276 0 -8.41428e-09 -0.671952 0 0.0375608 -0.699192 0 0.0721089 -0.723291 0 0.103399 -0.744007 0 0.131211 -0.761124 0 0.155359 -0.774454 0 0.175684 -0.783843 0 0.192061 -0.789167 0 0.204398 -0.790338 0 0.212638 -0.787298 0 0.216759 -0.780029 0 0.216772 -0.768544 0 0.212723 -0.752892 0 0.204695 -0.733156 0 0.192802 -0.709454 0 0.177191 -0.681935 0 0.158041 -0.650781 0 0.135562 -0.616203 0 0.10999 -0.578439 0 0.0815884 -0.537757 0 -9.77998e-09 -0.709983 0 0.0354636 -0.7376 0 0.0675441 -0.761748 0 0.0959919 -0.782178 0 0.12059 -0.798674 0 0.141155 -0.811054 0 0.157542 -0.819173 0 0.16964 -0.822922 0 0.177379 -0.822232 0 0.180728 -0.817073 0 0.179694 -0.807453 0 0.174323 -0.793418 0 0.164702 -0.775057 0 0.150953 -0.752494 0 0.133236 -0.72589 0 0.111749 -0.695441 0 0.08672 -0.66138 0 0.0584108 -0.623967 0 0.027112 -0.583496 0 -0.00685877 -0.540284 0 -1.12039e-08 -0.746047 0 0.0332575 -0.773745 0 0.0627507 -0.797627 0 0.0882288 -0.817444 0 0.109479 -0.832982 0 0.126328 -0.84407 0 0.138644 -0.850575 0 0.146339 -0.85241 0 0.149369 -0.84953 0 0.147731 -0.841935 0 0.14147 -0.829668 0 0.130672 -0.812817 0 0.115466 -0.791512 0 0.0960249 -0.765923 0 0.0725585 -0.736264 0 0.0453167 -0.702783 0 0.0145842 -0.665766 0 -0.0193208 -0.625532 0 -0.0560505 -0.582429 0 -0.0952302 -0.536831 0 -1.24805e-08 -0.780044 0 0.0309494 -0.807515 0 0.0577451 -0.830808 0 0.0801381 -0.849675 0 0.0979234 -0.863911 0 0.110942 -0.873356 0 0.119082 -0.877899 0 0.12228 -0.877478 0 0.120523 -0.872078 0 0.113846 -0.861734 0 0.102334 -0.846533 0 0.0861185 -0.826606 0 0.06538 -0.802133 0 0.0403429 -0.773338 0 0.0112745 -0.74049 0 -0.0215176 -0.703896 0 -0.0576888 -0.6639 0 -0.0968608 -0.620881 0 -0.138625 -0.575249 0 -0.182548 -0.527435 0 -1.49357e-08 -0.811882 0 0.0285463 -0.838808 0 0.0525441 -0.861179 0 0.0717499 -0.878752 0 0.0859707 -0.891334 0 0.0950659 -0.898784 0 0.0989487 -0.901015 0 0.0975868 -0.897996 0 0.0910035 -0.889749 0 0.0792763 -0.876352 0 0.0625373 -0.857937 0 0.0409708 -0.834689 0 0.0148121 -0.806842 0 -0.0156555 -0.774681 0 -0.0501032 -0.738532 0 -0.0881607 -0.698769 0 -0.12942 -0.655798 0 -0.173438 -0.610061 0 -0.219744 -0.56203 0 -0.267844 -0.5122 0 -1.88834e-08 -0.841471 0 0.0260557 -0.867527 0 0.0471653 -0.888636 0 0.0630953 -0.904566 0 0.0736692 -0.91514 0 0.0787699 -0.920241 0 0.0783411 -0.919812 0 0.0723875 -0.913859 0 0.060975 -0.902446 0 0.0442298 -0.885701 0 0.0223374 -0.863809 0 -0.00445978 -0.837011 0 -0.0358652 -0.805606 0 -0.0715312 -0.76994 0 -0.111063 -0.730408 0 -0.154023 -0.687448 0 -0.199935 -0.641536 0 -0.248292 -0.593179 0 -0.298557 -0.542914 0 -0.350176 -0.491295 0 </DataArray> 
<DataArray type="Float32" Name="divergence" format="ascii" NumberOfComponents="1"> 
-1.08476e-07 -8.12234e-10 1.29419e-10 -2.08255e-11 -2.85346e-11 -4.03958e-11 -5.55936e-11 -7.34483e-11 -9.42502e-11 -1.18219e-10 -1.45572e-10 -1.76467e-10 -2.11076e-10 -2.49547e-10 -2.91991e-10 -3.37831e-10 -3.85086e-10 -5.24931e-10 -4.78927e-11 -2.07844e-08 -2.67038e-08 -1.95826e-10 3.11021e-11 -8.33109e-13 -2.69187e-13 -2.9815e-13 -4.13012e-13 -5.46438e-13 -7.00995e-13 -8.8058e-13 -1.08542e-12 -1.30603e-12 -1.55825e-12 -1.85012e-12 -2.16235e-12 -2.49051e-12 -2.74944e-12 -8.33422e-12 2.59272e-11 3.37922e-09 1.7425e-08 1.2772e-10 -2.0287e-11 4.78334e-13 7.82152e-14 4.24105e-14 7.11237e-14 8.92064e-14 1.16351e-13 1.38112e-13 1.78191e-13 2.20832e-13 2.52409e-13 2.97984e-13 3.51739e-13 4.306e-13 6.27498e-13 -5.83096e-12 3.82918e-11 5.16196e-09 9.13595e-08 6.69517e-10 -1.06331e-10 2.39698e-12 2.07495e-13 -1.70627e-14 -3.43042e-16 -1.84054e-15 -5.41234e-15 -7.74207e-15 -8.06646e-15 -6.52806e-15 7.82187e-15 -4.27089e-15 -5.10648e-15 4.08354e-15 9.48477e-14 -4.50732e-12 2.64903e-11 3.55946e-09 1.97699e-07 1.44883e-09 -2.30104e-10 5.18379e-12 4.59827e-13 -3.9968e-14 1.06096e-14 -5.32907e-15 -3.88578e-15 -7.35523e-15 -4.60743e-15 -1.72822e-15 -3.05311e-15 -4.44089e-16 8.72219e-15 -3.00593e-14 -2.357e-13 1.00862e-11 -5.95992e-11 -8.0087e-09 3.38881e-07 2.48349e-09 -3.94429e-10 8.88506e-12 7.98916e-13 -6.70575e-14 -7.96585e-15 -1.33227e-15 3.9968e-15 -1.45994e-14 6.43929e-15 3.01148e-15 7.10543e-15 5.32907e-15 6.27276e-15 -1.05027e-13 -1.17684e-12 4.91145e-11 -2.90124e-10 -3.89899e-08 5.17886e-07 3.79532e-09 -6.02766e-10 1.35773e-11 1.21839e-12 -1.12327e-13 8.02483e-15 -6.4948e-15 7.57727e-15 3.96558e-15 7.18869e-15 3.49742e-15 1.08247e-15 3.30291e-15 2.78449e-14 -2.7521e-13 -3.06583e-12 1.27957e-10 -7.55929e-10 -1.01587e-07 7.37951e-07 5.40807e-09 -8.58893e-10 1.93525e-11 1.73661e-12 -1.43663e-13 -5.56499e-15 -1.36557e-14 -7.10543e-15 -1.14075e-14 2.88658e-15 5.61964e-15 -4.10783e-15 2.22045e-15 5.34919e-14 -5.70877e-13 -6.33893e-12 2.654e-10 -1.56787e-09 -2.10703e-07 1.00229e-06 7.34527e-09 -1.16656e-09 2.62843e-11 2.35389e-12 -2.0961e-13 -8.32667e-16 -4.88498e-15 -1.77636e-15 7.66054e-15 9.76996e-15 -1.07206e-15 1.13243e-14 2.66454e-15 1.09773e-13 -1.0365e-12 -1.1557e-11 4.83343e-10 -2.85542e-09 -3.83738e-07 1.31379e-06 9.62807e-09 -1.52909e-09 3.44478e-11 3.07493e-12 -2.76557e-13 1.39125e-14 -9.21485e-15 9.99201e-16 -7.96585e-15 7.21645e-15 -8.91865e-15 4.996e-15 1.69309e-14 1.73993e-13 -1.71868e-12 -1.92947e-11 8.0652e-10 -4.76448e-09 -6.40292e-07 1.67463e-06 1.22725e-08 -1.9491e-09 4.39183e-11 3.92975e-12 -3.59268e-13 -2.96985e-15 -6.66134e-16 4.44089e-15 -2.07612e-14 4.44089e-16 -6.17388e-15 6.88338e-15 3.55271e-15 2.59112e-13 -2.70706e-12 -3.0183e-11 1.26166e-09 -7.45324e-09 -1.00163e-06 2.08589e-06 1.52864e-08 -2.42775e-09 5.46917e-11 4.90106e-12 -4.39645e-13 -1.17495e-14 -1.11924e-14 -1.94289e-16 -4.49337e-15 6.04898e-15 -3.19082e-15 4.00808e-15 2.2829e-15 3.8206e-13 -4.02518e-12 -4.48965e-11 1.87658e-09 -1.10859e-08 -1.48982e-06 2.54707e-06 1.86661e-08 -2.96451e-09 6.68141e-11 5.96057e-12 -5.60441e-13 -6.38378e-15 1.02141e-14 3.55271e-15 9.29812e-15 -1.9762e-14 -6.56766e-15 1.72085e-15 7.21645e-15 5.6477e-13 -5.74579e-12 -6.40755e-11 2.67884e-09 -1.58252e-08 -2.12672e-06 3.05563e-06 2.23932e-08 -3.55642e-09 8.01278e-11 7.17071e-12 -6.59917e-13 1.77636e-15 1.15463e-14 8.88178e-16 1.09912e-14 3.9968e-15 1.1182e-14 4.44089e-15 1.9984e-14 7.75865e-13 -7.9341e-12 -8.8352e-11 3.69393e-09 -2.18218e-08 -2.93261e-06 3.60657e-06 2.6431e-08 -4.19784e-09 9.44234e-11 8.23892e-12 -1.09746e-12 -3.92412e-13 -5.21333e-13 -6.25638e-13 -7.53481e-13 -8.92772e-13 -1.03909e-12 -1.18591e-12 -1.3432e-12 -4.67129e-13 -1.22594e-11 -1.20059e-10 4.94121e-09 -2.92038e-08 -3.92439e-06 4.19199e-06 3.07182e-08 -4.87733e-09 1.1151e-10 1.21791e-11 2.29772e-12 4.20661e-12 5.31464e-12 6.55787e-12 7.85583e-12 9.30922e-12 1.08381e-11 1.24066e-11 1.4063e-11 1.70757e-11 3.59046e-12 -1.35007e-10 6.46305e-09 -3.80359e-08 -5.11446e-06 4.80277e-06 3.51658e-08 -5.57096e-09 1.43627e-10 3.75118e-11 3.48734e-11 4.69613e-11 5.93099e-11 7.29825e-11 8.78616e-11 1.03856e-10 1.20809e-10 1.38564e-10 1.56877e-10 1.77279e-10 1.76775e-10 1.71214e-11 8.41923e-09 -4.81249e-08 -6.49936e-06 5.32763e-06 4.03793e-08 -7.01207e-09 -6.16208e-10 -1.10981e-09 -1.5369e-09 -2.0076e-09 -2.5369e-09 -3.1215e-09 -3.75808e-09 -4.44187e-09 -5.16681e-09 -5.92556e-09 -6.7094e-09 -7.50629e-09 -8.33433e-09 -9.35766e-09 5.33156e-10 -7.20671e-08 -8.32016e-06 6.53377e-06 3.98092e-08 -2.70153e-09 4.73981e-09 6.79818e-09 9.28001e-09 1.21333e-08 1.53321e-08 1.88652e-08 2.27124e-08 2.68449e-08 3.12263e-08 3.58117e-08 4.05489e-08 4.53807e-08 5.02097e-08 5.47747e-08 7.11713e-08 -3.93173e-09 -8.77696e-06 2.59123e-05 -9.00378e-07 6.31977e-07 6.17626e-07 9.16045e-07 1.2534e-06 1.63853e-06 2.07051e-06 2.54764e-06 3.06717e-06 3.62525e-06 4.21693e-06 4.83616e-06 5.47589e-06 6.12808e-06 6.78372e-06 7.43252e-06 8.12637e-06 8.241e-06 -6.42572e-06 </DataArray> 
</PointData> 
<Points> 
<DataArray type="Float32" NumberOfComponents="3"> 
0 0 0 0.0526316 0 0 0.105263 0 0 0.157895 0 0 0.210526 0 0 0.263158 0 0 0.315789 0 0 0.368421 0 0 0.421053 0 0 0.473684 0 0 0.526316 0 0 0.578947 0 0 0.631579 0 0 0.684211 0 0 0.736842 0 0 0.789474 0 0 0.842105 0 0 0.894737 0 0 0.947368 0 0 1 0 0 0 0.0526316 0 0.0526316 0.0554017 0 0.105263 0.0581717 0 0.157895 0.0609418 0 0.210526 0.0637119 0 0.263158 0.066482 0 0.315789 0.0692521 0 0.368421 0.0720222 0 0.421053 0.0747922 0 0.473684 0.0775623 0 0.526316 0.0803324 0 0.578947 0.0831025 0 0.631579 0.0858726 0 0.684211 0.0886427 0 0.736842 0.0914127 0 0.789474 0.0941828 0 0.842105 0.0969529 0 0.894737 0.099723 0 0.947368 0.102493 0 1 0.105263 0 0 0.105263 0 0.0526316 0.110803 0 0.105263 0.116343 0 0.157895 0.121884 0 0.210526 0.127424 0 0.263158 0.132964 0 0.315789 0.138504 0 0.368421 0.144044 0 0.421053 0.149584 0 0.473684 0.155125 0 0.526316 0.160665 0 0.578947 0.166205 0 0.631579 0.171745 0 0.684211 0.177285 0 0.736842 0.182825 0 0.789474 0.188366 0 0.842105 0.193906 0 0.894737 0.199446 0 0.947368 0.204986 0 1 0.210526 0 0 0.157895 0 0.0526316 0.166205 0 0.105263 0.174515 0 0.157895 0.182825 0 0.210526 0.191136 0 0.263158 0.199446 0 0.315789 0.207756 0 0.368421 0.216066 0 0.421053 0.224377 0 0.473684 0.232687 0 0.526316 0.240997 0 0.578947 0.249307 0 0.631579 0.257618 0 0.684211 0.265928 0 0.736842 0.274238 0 0.789474 0.282548 0 0.842105 0.290859 0 0.894737 0.299169 0 0.947368 0.307479 0 1 0.315789 0 0 0.210526 0 0.0526316 0.221607 0 0.105263 0.232687 0 0.157895 0.243767 0 0.210526 0.254848 0 0.263158 0.265928 0 0.315789 0.277008 0 0.368421 0.288089 0 0.421053 0.299169 0 0.473684 0.310249 0 0.526316 0.32133 0 0.578947 0.33241 0 0.631579 0.34349 0 0.684211 0.354571 0 0.736842 0.365651 0 0.789474 0.376731 0 0.842105 0.387812 0 0.894737 0.398892 0 0.947368 0.409972 0 1 0.421053 0 0 0.263158 0 0.0526316 0.277008 0 0.105263 0.290859 0 0.157895 0.304709 0 0.210526 0.31856 0 0.263158 0.33241 0 0.315789 0.34626 0 0.368421 0.360111 0 0.421053 0.373961 0 0.473684 0.387812 0 0.526316 0.401662 0 0.578947 0.415512 0 0.631579 0.429363 0 0.684211 0.443213 0 0.736842 0.457064 0 0.789474 0.470914 0 0.842105 0.484765 0 0.894737 0.498615 0 0.947368 0.512465 0 1 0.526316 0 0 0.315789 0 0.0526316 0.33241 0 0.105263 0.34903 0 0.157895 0.365651 0 0.210526 0.382271 0 0.263158 0.398892 0 0.315789 0.415512 0 0.368421 0.432133 0 0.421053 0.448753 0 0.473684 0.465374 0 0.526316 0.481994 0 0.578947 0.498615 0 0.631579 0.515235 0 0.684211 0.531856 0 0.736842 0.548476 0 0.789474 0.565097 0 0.842105 0.581717 0 0.894737 0.598338 0 0.947368 0.614958 0 1 0.631579 0 0 0.368421 0 0.0526316 0.387812 0 0.105263 0.407202 0 0.157895 0.426593 0 0.210526 0.445983 0 0.263158 0.465374 0 0.315789 0.484765 0 0.368421 0.504155 0 0.421053 0.523546 0 0.473684 0.542936 0 0.526316 0.562327 0 0.578947 0.581717 0 0.631579 0.601108 0 0.684211 0.620499 0 0.736842 0.639889 0 0.789474 0.65928 0 0.842105 0.67867 0 0.894737 0.698061 0 0.947368 0.717452 0 1 0.736842 0 0 0.421053 0 0.0526316 0.443213 0 0.105263 0.465374 0 0.157895 0.487535 0 0.210526 0.509695 0 0.263158 0.531856 0 0.315789 0.554017 0 0.368421 0.576177 0 0.421053 0.598338 0 0.473684 0.620499 0 0.526316 0.642659 0 0.578947 0.66482 0 0.631579 0.686981 0 0.684211 0.709141 0 0.736842 0.731302 0 0.789474 0.753463 0 0.842105 0.775623 0 0.894737 0.797784 0 0.947368 0.819945 0 1 0.842105 0 0 0.473684 0 0.0526316 0.498615 0 0.105263 0.523546 0 0.157895 0.548476 0 0.210526 0.573407 0 0.263158 0.598338 0 0.315789 0.623269 0 0.368421 0.648199 0 0.421053 0.67313 0 0.473684 0.698061 0 0.526316 0.722992 0 0.578947 0.747922 0 0.631579 0.772853 0 0.684211 0.797784 0 0.736842 0.822715 0 0.789474 0.847645 0 0.842105 0.872576 0 0.894737 0.897507 0 0.947368 0.922438 0 1 0.947368 0 0 0.526316 0 0.0526316 0.554017 0 0.105263 0.581717 0 0.157895 0.609418 0 0.210526 0.637119 0 0.263158 0.66482 0 0.315789 0.692521 0 0.368421 0.720222 0 0.421053 0.747922 0 0.473684 0.775623 0 0.526316 0.803324 0 0.578947 0.831025 0 0.631579 0.858726 0 0.684211 0.886427 0 0.736842 0.914127 0 0.789474 0.941828 0 0.842105 0.969529 0 0.894737 0.99723 0 0.947368 1.02493 0 1 1.05263 0 0 0.578947 0 0.0526316 0.609418 0 0.105263 0.639889 0 0.157895 0.67036 0 0.210526 0.700831 0 0.263158 0.731302 0 0.315789 0.761773 0 0.368421 0.792244 0 0.421053 0.822715 0 0.473684 0.853186 0 0.526316 0.883657 0 0.578947 0.914127 0 0.631579 0.944598 0 0.684211 0.975069 0 0.736842 1.00554 0 0.789474 1.03601 0 0.842105 1.06648 0 0.894737 1.09695 0 0.947368 1.12742 0 1 1.15789 0 0 0.631579 0 0.0526316 0.66482 0 0.105263 0.698061 0 0.157895 0.731302 0 0.210526 0.764543 0 0.263158 0.797784 0 0.315789 0.831025 0 0.368421 0.864266 0 0.421053 0.897507 0 0.473684 0.930748 0 0.526316 0.963989 0 0.578947 0.99723 0 0.631579 1.03047 0 0.684211 1.06371 0 0.736842 1.09695 0 0.789474 1.13019 0 0.842105 1.16343 0 0.894737 1.19668 0 0.947368 1.22992 0 1 1.26316 0 0 0.684211 0 0.0526316 0.720222 0 0.105263 0.756233 0 0.157895 0.792244 0 0.210526 0.828255 0 0.263158 0.864266 0 0.315789 0.900277 0 0.368421 0.936288 0 0.421053 0.972299 0 0.473684 1.00831 0 0.526316 1.04432 0 0.578947 1.08033 0 0.631579 1.11634 0 0.684211 1.15235 0 0.736842 1.18837 0 0.789474 1.22438 0 0.842105 1.26039 0 0.894737 1.2964 0 0.947368 1.33241 0 1 1.36842 0 0 0.736842 0 0.0526316 0.775623 0 0.105263 0.814404 0 0.157895 0.853186 0 0.210526 0.891967 0 0.263158 0.930748 0 0.315789 0.969529 0 0.368421 1.00831 0 0.421053 1.04709 0 0.473684 1.08587 0 0.526316 1.12465 0 0.578947 1.16343 0 0.631579 1.20222 0 0.684211 1.241 0 0.736842 1.27978 0 0.789474 1.31856 0 0.842105 1.35734 0 0.894737 1.39612 0 0.947368 1.4349 0 1 1.47368 0 0 0.789474 0 0.0526316 0.831025 0 0.105263 0.872576 0 0.157895 0.914127 0 0.210526 0.955679 0 0.263158 0.99723 0 0.315789 1.03878 0 0.368421 1.08033 0 0.421053 1.12188 0 0.473684 1.16343 0 0.526316 1.20499 0 0.578947 1.24654 0 0.631579 1.28809 0 0.684211 1.32964 0 0.736842 1.37119 0 0.789474 1.41274 0 0.842105 1.45429 0 0.894737 1.49584 0 0.947368 1.5374 0 1 1.57895 0 0 0.842105 0 0.0526316 0.886427 0 0.105263 0.930748 0 0.157895 0.975069 0 0.210526 1.01939 0 0.263158 1.06371 0 0.315789 1.10803 0 0.368421 1.15235 0 0.421053 1.19668 0 0.473684 1.241 0 0.526316 1.28532 0 0.578947 1.32964 0 0.631579 1.37396 0 0.684211 1.41828 0 0.736842 1.4626 0 0.789474 1.50693 0 0.842105 1.55125 0 0.894737 1.59557 0 0.947368 1.63989 0 1 1.68421 0 0 0.894737 0 0.0526316 0.941828 0 0.105263 0.98892 0 0.157895 1.03601 0 0.210526 1.0831 0 0.263158 1.13019 0 0.315789 1.17729 0 0.368421 1.22438 0 0.421053 1.27147 0 0.473684 1.31856 0 0.526316 1.36565 0 0.578947 1.41274 0 0.631579 1.45983 0 0.684211 1.50693 0 0.736842 1.55402 0 0.789474 1.60111 0 0.842105 1.6482 0 0.894737 1.69529 0 0.947368 1.74238 0 1 1.78947 0 0 0.947368 0 0.0526316 0.99723 0 0.105263 1.04709 0 0.157895 1.09695 0 0.210526 1.14681 0 0.263158 1.19668 0 0.315789 1.24654 0 0.368421 1.2964 0 0.421053 1.34626 0 0.473684 1.39612 0 0.526316 1.44598 0 0.578947 1.49584 0 0.631579 1.54571 0 0.684211 1.59557 0 0.736842 1.64543 0 0.789474 1.69529 0 0.842105 1.74515 0 0.894737 1.79501 0 0.947368 1.84488 0 1 1.89474 0 0 1 0 0.0526316 1.05263 0 0.105263 1.10526 0 0.157895 1.15789 0 0.210526 1.21053 0 0.263158 1.26316 0 0.315789 1.31579 0 0.368421 1.36842 0 0.421053 1.42105 0 0.473684 1.47368 0 0.526316 1.52632 0 0.578947 1.57895 0 0.631579 1.63158 0 0.684211 1.68421 0 0.736842 1.73684 0 0.789474 1.78947 0 0.842105 1.84211 0 0.894737 1.89474 0 0.947368 1.94737 0 1 2 0 
</DataArray>
</Points> 
</Piece> 
</StructuredGrid> 
</VTKFile> 
