<?xml version="1.0"?> 
<VTKFile type="StructuredGrid" version="0.1"> 
<StructuredGrid WholeExtent="0 19 0 19 0 0"> 
<Piece Extent="0 19 0 19 0 0"> 
<PointData>
<DataArray type="Float32" Name="press" format="ascii" NumberOfComponents="1"> 
-0.492188 -0.445312 -0.398437 -0.335937 -0.289062 -0.242187 -0.179687 -0.132812 -0.0859365 -0.0234362 0.023439 0.0859393 0.132815 0.17969 0.24219 0.289065 0.335941 0.398441 0.445316 0.492191 -0.492188 -0.445312 -0.398437 -0.335937 -0.289062 -0.242187 -0.179687 -0.132812 -0.0859365 -0.0234362 0.023439 0.0859393 0.132815 0.17969 0.24219 0.289065 0.335941 0.398441 0.445316 0.492191 -0.492188 -0.445313 -0.398438 -0.335937 -0.289062 -0.242187 -0.179687 -0.132812 -0.0859366 -0.0234363 0.023439 0.0859393 0.132815 0.17969 0.24219 0.289065 0.335941 0.398441 0.445316 0.492191 -0.492188 -0.445313 -0.398438 -0.335938 -0.289062 -0.242187 -0.179687 -0.132812 -0.0859367 -0.0234364 0.0234389 0.0859392 0.132814 0.17969 0.24219 0.289065 0.335941 0.398441 0.445316 0.492191 -0.492188 -0.445313 -0.398438 -0.335938 -0.289062 -0.242187 -0.179687 -0.132812 -0.0859368 -0.0234365 0.0234388 0.0859391 0.132814 0.17969 0.24219 0.289065 0.335941 0.398441 0.445316 0.492191 -0.492188 -0.445313 -0.398438 -0.335938 -0.289063 -0.242187 -0.179687 -0.132812 -0.0859369 -0.0234366 0.0234386 0.085939 0.132814 0.17969 0.24219 0.289065 0.33594 0.398441 0.445316 0.492191 -0.492188 -0.445313 -0.398438 -0.335938 -0.289063 -0.242188 -0.179688 -0.132812 -0.0859371 -0.0234368 0.0234384 0.0859388 0.132814 0.179689 0.24219 0.289065 0.33594 0.398441 0.445316 0.492192 -0.492188 -0.445313 -0.398438 -0.335938 -0.289063 -0.242188 -0.179688 -0.132812 -0.0859373 -0.023437 0.0234383 0.0859386 0.132814 0.179689 0.24219 0.289065 0.33594 0.398441 0.445316 0.492192 -0.492189 -0.445313 -0.398438 -0.335938 -0.289063 -0.242188 -0.179688 -0.132813 -0.0859375 -0.0234372 0.0234381 0.0859384 0.132814 0.179689 0.242189 0.289065 0.33594 0.398441 0.445316 0.492192 -0.492189 -0.445314 -0.398439 -0.335939 -0.289064 -0.242188 -0.179688 -0.132813 -0.0859378 -0.0234375 0.0234378 0.0859381 0.132813 0.179689 0.242189 0.289065 0.33594 0.398441 0.445316 0.492192 -0.492189 -0.445314 -0.398439 -0.335939 -0.289064 -0.242189 -0.179688 -0.132813 -0.0859381 -0.0234378 0.0234375 0.0859379 0.132813 0.179689 0.242189 0.289064 0.33594 0.39844 0.445316 0.492191 -0.492189 -0.445314 -0.398439 -0.335939 -0.289064 -0.242189 -0.179689 -0.132814 -0.0859384 -0.0234381 0.0234371 0.0859375 0.132813 0.179688 0.242189 0.289064 0.335939 0.39844 0.445316 0.492191 -0.49219 -0.445315 -0.39844 -0.335939 -0.289064 -0.242189 -0.179689 -0.132814 -0.0859387 -0.0234384 0.0234368 0.0859372 0.132812 0.179688 0.242188 0.289064 0.335939 0.39844 0.445315 0.492191 -0.49219 -0.445315 -0.39844 -0.33594 -0.289065 -0.24219 -0.179689 -0.132814 -0.085939 -0.0234388 0.0234365 0.0859369 0.132812 0.179688 0.242188 0.289063 0.335939 0.39844 0.445315 0.492191 -0.49219 -0.445315 -0.39844 -0.33594 -0.289065 -0.24219 -0.17969 -0.132815 -0.0859395 -0.0234392 0.023436 0.0859364 0.132812 0.179687 0.242187 0.289063 0.335938 0.398439 0.445315 0.49219 -0.49219 -0.445315 -0.39844 -0.33594 -0.289065 -0.24219 -0.17969 -0.132815 -0.0859398 -0.0234396 0.0234356 0.0859359 0.132811 0.179687 0.242187 0.289062 0.335938 0.398439 0.445314 0.49219 -0.492191 -0.445316 -0.398441 -0.335941 -0.289066 -0.24219 -0.17969 -0.132815 -0.0859402 -0.02344 0.0234352 0.0859355 0.132811 0.179686 0.242187 0.289062 0.335938 0.398438 0.445314 0.492189 -0.492191 -0.445316 -0.398441 -0.335941 -0.289066 -0.242191 -0.179691 -0.132816 -0.0859407 -0.0234406 0.0234346 0.0859349 0.13281 0.179685 0.242186 0.289061 0.335937 0.398438 0.445313 0.492189 -0.492191 -0.445316 -0.398441 -0.335941 -0.289066 -0.242191 -0.179691 -0.132816 -0.0859411 -0.023441 0.0234341 0.0859344 0.13281 0.179685 0.242185 0.289061 0.335936 0.398437 0.445312 0.492188 -0.492191 -0.445316 -0.398441 -0.335941 -0.289066 -0.242191 -0.179692 -0.132817 -0.0859416 -0.0234415 0.0234336 0.0859338 0.132809 0.179684 0.242185 0.28906 0.335936 0.398436 0.445312 0.492188 </DataArray> 
</PointData> 
<Points> 
<DataArray type="Float32" NumberOfComponents="3"> 
0 0 0 0.0526316 0 0 0.105263 0 0 0.157895 0 0 0.210526 0 0 0.263158 0 0 0.315789 0 0 0.368421 0 0 0.421053 0 0 0.473684 0 0 0.526316 0 0 0.578947 0 0 0.631579 0 0 0.684211 0 0 0.736842 0 0 0.789474 0 0 0.842105 0 0 0.894737 0 0 0.947368 0 0 1 0 0 0 0.0526316 0 0.0526316 0.0526316 0 0.105263 0.0526316 0 0.157895 0.0526316 0 0.210526 0.0526316 0 0.263158 0.0526316 0 0.315789 0.0526316 0 0.368421 0.0526316 0 0.421053 0.0526316 0 0.473684 0.0526316 0 0.526316 0.0526316 0 0.578947 0.0526316 0 0.631579 0.0526316 0 0.684211 0.0526316 0 0.736842 0.0526316 0 0.789474 0.0526316 0 0.842105 0.0526316 0 0.894737 0.0526316 0 0.947368 0.0526316 0 1 0.0526316 0 0 0.105263 0 0.0526316 0.105263 0 0.105263 0.105263 0 0.157895 0.105263 0 0.210526 0.105263 0 0.263158 0.105263 0 0.315789 0.105263 0 0.368421 0.105263 0 0.421053 0.105263 0 0.473684 0.105263 0 0.526316 0.105263 0 0.578947 0.105263 0 0.631579 0.105263 0 0.684211 0.105263 0 0.736842 0.105263 0 0.789474 0.105263 0 0.842105 0.105263 0 0.894737 0.105263 0 0.947368 0.105263 0 1 0.105263 0 0 0.157895 0 0.0526316 0.157895 0 0.105263 0.157895 0 0.157895 0.157895 0 0.210526 0.157895 0 0.263158 0.157895 0 0.315789 0.157895 0 0.368421 0.157895 0 0.421053 0.157895 0 0.473684 0.157895 0 0.526316 0.157895 0 0.578947 0.157895 0 0.631579 0.157895 0 0.684211 0.157895 0 0.736842 0.157895 0 0.789474 0.157895 0 0.842105 0.157895 0 0.894737 0.157895 0 0.947368 0.157895 0 1 0.157895 0 0 0.210526 0 0.0526316 0.210526 0 0.105263 0.210526 0 0.157895 0.210526 0 0.210526 0.210526 0 0.263158 0.210526 0 0.315789 0.210526 0 0.368421 0.210526 0 0.421053 0.210526 0 0.473684 0.210526 0 0.526316 0.210526 0 0.578947 0.210526 0 0.631579 0.210526 0 0.684211 0.210526 0 0.736842 0.210526 0 0.789474 0.210526 0 0.842105 0.210526 0 0.894737 0.210526 0 0.947368 0.210526 0 1 0.210526 0 0 0.263158 0 0.0526316 0.263158 0 0.105263 0.263158 0 0.157895 0.263158 0 0.210526 0.263158 0 0.263158 0.263158 0 0.315789 0.263158 0 0.368421 0.263158 0 0.421053 0.263158 0 0.473684 0.263158 0 0.526316 0.263158 0 0.578947 0.263158 0 0.631579 0.263158 0 0.684211 0.263158 0 0.736842 0.263158 0 0.789474 0.263158 0 0.842105 0.263158 0 0.894737 0.263158 0 0.947368 0.263158 0 1 0.263158 0 0 0.315789 0 0.0526316 0.315789 0 0.105263 0.315789 0 0.157895 0.315789 0 0.210526 0.315789 0 0.263158 0.315789 0 0.315789 0.315789 0 0.368421 0.315789 0 0.421053 0.315789 0 0.473684 0.315789 0 0.526316 0.315789 0 0.578947 0.315789 0 0.631579 0.315789 0 0.684211 0.315789 0 0.736842 0.315789 0 0.789474 0.315789 0 0.842105 0.315789 0 0.894737 0.315789 0 0.947368 0.315789 0 1 0.315789 0 0 0.368421 0 0.0526316 0.368421 0 0.105263 0.368421 0 0.157895 0.368421 0 0.210526 0.368421 0 0.263158 0.368421 0 0.315789 0.368421 0 0.368421 0.368421 0 0.421053 0.368421 0 0.473684 0.368421 0 0.526316 0.368421 0 0.578947 0.368421 0 0.631579 0.368421 0 0.684211 0.368421 0 0.736842 0.368421 0 0.789474 0.368421 0 0.842105 0.368421 0 0.894737 0.368421 0 0.947368 0.368421 0 1 0.368421 0 0 0.421053 0 0.0526316 0.421053 0 0.105263 0.421053 0 0.157895 0.421053 0 0.210526 0.421053 0 0.263158 0.421053 0 0.315789 0.421053 0 0.368421 0.421053 0 0.421053 0.421053 0 0.473684 0.421053 0 0.526316 0.421053 0 0.578947 0.421053 0 0.631579 0.421053 0 0.684211 0.421053 0 0.736842 0.421053 0 0.789474 0.421053 0 0.842105 0.421053 0 0.894737 0.421053 0 0.947368 0.421053 0 1 0.421053 0 0 0.473684 0 0.0526316 0.473684 0 0.105263 0.473684 0 0.157895 0.473684 0 0.210526 0.473684 0 0.263158 0.473684 0 0.315789 0.473684 0 0.368421 0.473684 0 0.421053 0.473684 0 0.473684 0.473684 0 0.526316 0.473684 0 0.578947 0.473684 0 0.631579 0.473684 0 0.684211 0.473684 0 0.736842 0.473684 0 0.789474 0.473684 0 0.842105 0.473684 0 0.894737 0.473684 0 0.947368 0.473684 0 1 0.473684 0 0 0.526316 0 0.0526316 0.526316 0 0.105263 0.526316 0 0.157895 0.526316 0 0.210526 0.526316 0 0.263158 0.526316 0 0.315789 0.526316 0 0.368421 0.526316 0 0.421053 0.526316 0 0.473684 0.526316 0 0.526316 0.526316 0 0.578947 0.526316 0 0.631579 0.526316 0 0.684211 0.526316 0 0.736842 0.526316 0 0.789474 0.526316 0 0.842105 0.526316 0 0.894737 0.526316 0 0.947368 0.526316 0 1 0.526316 0 0 0.578947 0 0.0526316 0.578947 0 0.105263 0.578947 0 0.157895 0.578947 0 0.210526 0.578947 0 0.263158 0.578947 0 0.315789 0.578947 0 0.368421 0.578947 0 0.421053 0.578947 0 0.473684 0.578947 0 0.526316 0.578947 0 0.578947 0.578947 0 0.631579 0.578947 0 0.684211 0.578947 0 0.736842 0.578947 0 0.789474 0.578947 0 0.842105 0.578947 0 0.894737 0.578947 0 0.947368 0.578947 0 1 0.578947 0 0 0.631579 0 0.0526316 0.631579 0 0.105263 0.631579 0 0.157895 0.631579 0 0.210526 0.631579 0 0.263158 0.631579 0 0.315789 0.631579 0 0.368421 0.631579 0 0.421053 0.631579 0 0.473684 0.631579 0 0.526316 0.631579 0 0.578947 0.631579 0 0.631579 0.631579 0 0.684211 0.631579 0 0.736842 0.631579 0 0.789474 0.631579 0 0.842105 0.631579 0 0.894737 0.631579 0 0.947368 0.631579 0 1 0.631579 0 0 0.684211 0 0.0526316 0.684211 0 0.105263 0.684211 0 0.157895 0.684211 0 0.210526 0.684211 0 0.263158 0.684211 0 0.315789 0.684211 0 0.368421 0.684211 0 0.421053 0.684211 0 0.473684 0.684211 0 0.526316 0.684211 0 0.578947 0.684211 0 0.631579 0.684211 0 0.684211 0.684211 0 0.736842 0.684211 0 0.789474 0.684211 0 0.842105 0.684211 0 0.894737 0.684211 0 0.947368 0.684211 0 1 0.684211 0 0 0.736842 0 0.0526316 0.736842 0 0.105263 0.736842 0 0.157895 0.736842 0 0.210526 0.736842 0 0.263158 0.736842 0 0.315789 0.736842 0 0.368421 0.736842 0 0.421053 0.736842 0 0.473684 0.736842 0 0.526316 0.736842 0 0.578947 0.736842 0 0.631579 0.736842 0 0.684211 0.736842 0 0.736842 0.736842 0 0.789474 0.736842 0 0.842105 0.736842 0 0.894737 0.736842 0 0.947368 0.736842 0 1 0.736842 0 0 0.789474 0 0.0526316 0.789474 0 0.105263 0.789474 0 0.157895 0.789474 0 0.210526 0.789474 0 0.263158 0.789474 0 0.315789 0.789474 0 0.368421 0.789474 0 0.421053 0.789474 0 0.473684 0.789474 0 0.526316 0.789474 0 0.578947 0.789474 0 0.631579 0.789474 0 0.684211 0.789474 0 0.736842 0.789474 0 0.789474 0.789474 0 0.842105 0.789474 0 0.894737 0.789474 0 0.947368 0.789474 0 1 0.789474 0 0 0.842105 0 0.0526316 0.842105 0 0.105263 0.842105 0 0.157895 0.842105 0 0.210526 0.842105 0 0.263158 0.842105 0 0.315789 0.842105 0 0.368421 0.842105 0 0.421053 0.842105 0 0.473684 0.842105 0 0.526316 0.842105 0 0.578947 0.842105 0 0.631579 0.842105 0 0.684211 0.842105 0 0.736842 0.842105 0 0.789474 0.842105 0 0.842105 0.842105 0 0.894737 0.842105 0 0.947368 0.842105 0 1 0.842105 0 0 0.894737 0 0.0526316 0.894737 0 0.105263 0.894737 0 0.157895 0.894737 0 0.210526 0.894737 0 0.263158 0.894737 0 0.315789 0.894737 0 0.368421 0.894737 0 0.421053 0.894737 0 0.473684 0.894737 0 0.526316 0.894737 0 0.578947 0.894737 0 0.631579 0.894737 0 0.684211 0.894737 0 0.736842 0.894737 0 0.789474 0.894737 0 0.842105 0.894737 0 0.894737 0.894737 0 0.947368 0.894737 0 1 0.894737 0 0 0.947368 0 0.0526316 0.947368 0 0.105263 0.947368 0 0.157895 0.947368 0 0.210526 0.947368 0 0.263158 0.947368 0 0.315789 0.947368 0 0.368421 0.947368 0 0.421053 0.947368 0 0.473684 0.947368 0 0.526316 0.947368 0 0.578947 0.947368 0 0.631579 0.947368 0 0.684211 0.947368 0 0.736842 0.947368 0 0.789474 0.947368 0 0.842105 0.947368 0 0.894737 0.947368 0 0.947368 0.947368 0 1 0.947368 0 0 1 0 0.0526316 1 0 0.105263 1 0 0.157895 1 0 0.210526 1 0 0.263158 1 0 0.315789 1 0 0.368421 1 0 0.421053 1 0 0.473684 1 0 0.526316 1 0 0.578947 1 0 0.631579 1 0 0.684211 1 0 0.736842 1 0 0.789474 1 0 0.842105 1 0 0.894737 1 0 0.947368 1 0 1 1 0 
</DataArray>
</Points> 
</Piece> 
</StructuredGrid> 
</VTKFile> 
