<?xml version="1.0"?> 
<VTKFile type="StructuredGrid" version="0.1"> 
<StructuredGrid WholeExtent="0 19 0 19 0 0"> 
<Piece Extent="0 19 0 19 0 0"> 
<PointData>
<DataArray type="Float32" Name="velocity" format="ascii" NumberOfComponents="3"> 
0 0 0 0.000410239 0 0 0.000819401 0 0 0.00122636 0 0 0.00162993 0 0 0.00202908 0 0 0.00242263 0 0 0.00280951 0 0 0.00318874 0 0 0.00355906 0 0 0.00391963 0 0 0.0042695 0 0 0.00460742 0 0 0.00493282 0 0 0.00524462 0 0 0.00554193 0 0 0.00582424 0 0 0.0060905 0 0 0.00634032 0 0 0.00657379 0 0 0 -0.000410239 0 0.00287192 -0.00287192 0 0.00573598 -0.00531466 0 0.00858428 -0.00851426 0 0.0114086 -0.0108502 0 0.0142017 -0.0131138 0 0.0169553 -0.015993 0 0.0196619 -0.0180284 0 0.0223147 -0.0199413 0 0.0249048 -0.0222766 0 0.0274265 -0.023849 0 0.0298728 -0.0256823 0 0.0322352 -0.0268439 0 0.0345094 -0.0278099 0 0.036688 -0.0287751 0 0.0387644 -0.0292444 0 0.0407349 -0.0294854 0 0.0425915 -0.0294381 0 0.0443308 -0.0291174 0 0.0459491 -0.0285456 0 0 -0.000819401 0 0.00531466 -0.00573598 0 0.0106147 -0.0106147 0 0.0158856 -0.0170051 0 0.021112 -0.0216705 0 0.0262806 -0.0261916 0 0.0313761 -0.0319419 0 0.0363845 -0.0360071 0 0.0412935 -0.0398276 0 0.0460863 -0.0444917 0 0.0507524 -0.0476323 0 0.0552791 -0.0512938 0 0.0596503 -0.0536138 0 0.0638584 -0.0555431 0 0.0678893 -0.0574709 0 0.0717311 -0.0584081 0 0.0753767 -0.0588894 0 0.0788115 -0.058795 0 0.0820286 -0.0581541 0 0.0850215 -0.0570116 0 0 -0.00122636 0 0.00851426 -0.00858428 0 0.0170051 -0.0158856 0 0.0254491 -0.0254491 0 0.0338219 -0.0324311 0 0.0421021 -0.0391972 0 0.0502651 -0.0478029 0 0.0582885 -0.0538867 0 0.0661526 -0.0596042 0 0.0738306 -0.0665844 0 0.0813056 -0.0712844 0 0.0885572 -0.076764 0 0.0955597 -0.080236 0 0.102301 -0.0831232 0 0.108758 -0.0860084 0 0.114912 -0.0874108 0 0.120752 -0.0881311 0 0.126254 -0.0879896 0 0.131406 -0.0870303 0 0.1362 -0.08532 0 0 -0.00162993 0 0.0108502 -0.0114086 0 0.0216705 -0.021112 0 0.0324311 -0.0338219 0 0.0431009 -0.0431009 0 0.0536528 -0.052093 0 0.0640552 -0.0635299 0 0.0742798 -0.0716153 0 0.0843013 -0.0792138 0 0.0940857 -0.0884904 0 0.103611 -0.0947367 0 0.112852 -0.102019 0 0.121776 -0.106633 0 0.130366 -0.11047 0 0.138595 -0.114305 0 0.146437 -0.116169 0 0.153878 -0.117126 0 0.160889 -0.116938 0 0.167455 -0.115662 0 0.173564 -0.113389 0 0 -0.00202908 0 0.0131138 -0.0142017 0 0.0261916 -0.0262806 0 0.0391972 -0.0421021 0 0.052093 -0.0536528 0 0.0648463 -0.0648463 0 0.0774189 -0.0790831 0 0.0897766 -0.0891479 0 0.101889 -0.0986066 0 0.113714 -0.110154 0 0.125227 -0.11793 0 0.136396 -0.126995 0 0.147181 -0.132739 0 0.157563 -0.137515 0 0.167509 -0.142288 0 0.176987 -0.144608 0 0.185981 -0.1458 0 0.194454 -0.145565 0 0.20239 -0.143978 0 0.209772 -0.141147 0 0 -0.00242263 0 0.015993 -0.0169553 0 0.0319419 -0.0313761 0 0.0478029 -0.0502651 0 0.0635299 -0.0640552 0 0.0790831 -0.0774189 0 0.094416 -0.094416 0 0.109487 -0.106432 0 0.124258 -0.117725 0 0.13868 -0.131511 0 0.15272 -0.140794 0 0.166341 -0.151617 0 0.179494 -0.158474 0 0.192155 -0.164177 0 0.204284 -0.169875 0 0.215842 -0.172645 0 0.226811 -0.174067 0 0.237144 -0.173787 0 0.246822 -0.171892 0 0.255824 -0.168512 0 0 -0.00280951 0 0.0180284 -0.0196619 0 0.0360071 -0.0363845 0 0.0538867 -0.0582885 0 0.0716153 -0.0742798 0 0.0891479 -0.0897766 0 0.106432 -0.109487 0 0.123421 -0.123421 0 0.140072 -0.136516 0 0.156329 -0.152503 0 0.172157 -0.163268 0 0.187511 -0.175818 0 0.202337 -0.18377 0 0.21661 -0.190383 0 0.230282 -0.19699 0 0.243312 -0.200202 0 0.255676 -0.201851 0 0.267324 -0.201526 0 0.278233 -0.199328 0 0.288381 -0.195409 0 0 -0.00318874 0 0.0199413 -0.0223147 0 0.0398276 -0.0412935 0 0.0596042 -0.0661526 0 0.0792138 -0.0843013 0 0.0986066 -0.101889 0 0.117725 -0.124258 0 0.136516 -0.140072 0 0.154934 -0.154934 0 0.172916 -0.173078 0 0.190422 -0.185295 0 0.207406 -0.199538 0 0.223805 -0.208563 0 0.239592 -0.216068 0 0.254715 -0.223567 0 0.269127 -0.227212 0 0.282802 -0.229083 0 0.295686 -0.228714 0 0.307753 -0.226219 0 0.318978 -0.221772 0 0 -0.00355906 0 0.0222766 -0.0249048 0 0.0444917 -0.0460863 0 0.0665844 -0.0738306 0 0.0884904 -0.0940857 0 0.110154 -0.113714 0 0.131511 -0.13868 0 0.152503 -0.156329 0 0.173078 -0.172916 0 0.193166 -0.193166 0 0.212722 -0.206801 0 0.231694 -0.222697 0 0.250014 -0.232769 0 0.26765 -0.241145 0 0.284543 -0.249514 0 0.300643 -0.253582 0 0.31592 -0.255671 0 0.330312 -0.255259 0 0.343792 -0.252474 0 0.356331 -0.24751 0 0 -0.00391963 0 0.023849 -0.0274265 0 0.0476323 -0.0507524 0 0.0712844 -0.0813056 0 0.0947367 -0.103611 0 0.11793 -0.125227 0 0.140794 -0.15272 0 0.163268 -0.172157 0 0.185295 -0.190422 0 0.206801 -0.212722 0 0.227737 -0.227737 0 0.248048 -0.245243 0 0.267662 -0.256335 0 0.286542 -0.265559 0 0.304628 -0.274775 0 0.321864 -0.279255 0 0.338219 -0.281555 0 0.353627 -0.281101 0 0.368059 -0.278034 0 0.381483 -0.272568 0 0 -0.0042695 0 0.0256823 -0.0298728 0 0.0512938 -0.0552791 0 0.076764 -0.0885572 0 0.102019 -0.112852 0 0.126995 -0.136396 0 0.151617 -0.166341 0 0.175818 -0.187511 0 0.199538 -0.207406 0 0.222697 -0.231694 0 0.245243 -0.248048 0 0.267115 -0.267115 0 0.288236 -0.279196 0 0.308568 -0.289243 0 0.328043 -0.299281 0 0.346604 -0.30416 0 0.364217 -0.306666 0 0.380809 -0.306171 0 0.39635 -0.302831 0 0.410806 -0.296876 0 0 -0.00460742 0 0.0268439 -0.0322352 0 0.0536138 -0.0596503 0 0.080236 -0.0955597 0 0.106633 -0.121776 0 0.132739 -0.147181 0 0.158474 -0.179494 0 0.18377 -0.202337 0 0.208563 -0.223805 0 0.232769 -0.250014 0 0.256335 -0.267662 0 0.279196 -0.288236 0 0.301272 -0.301272 0 0.322524 -0.312113 0 0.34288 -0.322945 0 0.36228 -0.32821 0 0.380689 -0.330913 0 0.398032 -0.330379 0 0.414275 -0.326775 0 0.429385 -0.32035 0 0 -0.00493282 0 0.0278099 -0.0345094 0 0.0555431 -0.0638584 0 0.0831232 -0.102301 0 0.11047 -0.130366 0 0.137515 -0.157563 0 0.164177 -0.192155 0 0.190383 -0.21661 0 0.216068 -0.239592 0 0.241145 -0.26765 0 0.265559 -0.286542 0 0.289243 -0.308568 0 0.312113 -0.322524 0 0.334129 -0.334129 0 0.355217 -0.345725 0 0.375316 -0.351361 0 0.394387 -0.354255 0 0.412354 -0.353683 0 0.429182 -0.349824 0 0.444835 -0.342946 0 0 -0.00524462 0 0.0287751 -0.036688 0 0.0574709 -0.0678893 0 0.0860084 -0.108758 0 0.114305 -0.138595 0 0.142288 -0.167509 0 0.169875 -0.204284 0 0.19699 -0.230282 0 0.223567 -0.254715 0 0.249514 -0.284543 0 0.274775 -0.304628 0 0.299281 -0.328043 0 0.322945 -0.34288 0 0.345725 -0.355217 0 0.367545 -0.367545 0 0.388341 -0.373537 0 0.408074 -0.376614 0 0.426665 -0.376006 0 0.444076 -0.371903 0 0.460273 -0.36459 0 0 -0.00554193 0 0.0292444 -0.0387644 0 0.0584081 -0.0717311 0 0.0874108 -0.114912 0 0.116169 -0.146437 0 0.144608 -0.176987 0 0.172645 -0.215842 0 0.200202 -0.243312 0 0.227212 -0.269127 0 0.253582 -0.300643 0 0.279255 -0.321864 0 0.30416 -0.346604 0 0.32821 -0.36228 0 0.351361 -0.375316 0 0.373537 -0.388341 0 0.394672 -0.394672 0 0.414727 -0.397923 0 0.43362 -0.39728 0 0.451316 -0.392945 0 0.467776 -0.385219 0 0 -0.00582424 0 0.0294854 -0.0407349 0 0.0588894 -0.0753767 0 0.0881311 -0.120752 0 0.117126 -0.153878 0 0.1458 -0.185981 0 0.174067 -0.226811 0 0.201851 -0.255676 0 0.229083 -0.282802 0 0.255671 -0.31592 0 0.281555 -0.338219 0 0.306666 -0.364217 0 0.330913 -0.380689 0 0.354255 -0.394387 0 0.376614 -0.408074 0 0.397923 -0.414727 0 0.418143 -0.418143 0 0.437192 -0.417468 0 0.455033 -0.412912 0 0.471629 -0.404793 0 0 -0.0060905 0 0.0294381 -0.0425915 0 0.058795 -0.0788115 0 0.0879896 -0.126254 0 0.116938 -0.160889 0 0.145565 -0.194454 0 0.173787 -0.237144 0 0.201526 -0.267324 0 0.228714 -0.295686 0 0.255259 -0.330312 0 0.281101 -0.353627 0 0.306171 -0.380809 0 0.330379 -0.398032 0 0.353683 -0.412354 0 0.376006 -0.426665 0 0.39728 -0.43362 0 0.417468 -0.437192 0 0.436486 -0.436486 0 0.454298 -0.431723 0 0.470868 -0.423233 0 0 -0.00634032 0 0.0291174 -0.0443308 0 0.0581541 -0.0820286 0 0.0870303 -0.131406 0 0.115662 -0.167455 0 0.143978 -0.20239 0 0.171892 -0.246822 0 0.199328 -0.278233 0 0.226219 -0.307753 0 0.252474 -0.343792 0 0.278034 -0.368059 0 0.302831 -0.39635 0 0.326775 -0.414275 0 0.349824 -0.429182 0 0.371903 -0.444076 0 0.392945 -0.451316 0 0.412912 -0.455033 0 0.431723 -0.454298 0 0.449341 -0.449341 0 0.465729 -0.440505 0 0 -0.00657379 0 0.0285456 -0.0459491 0 0.0570116 -0.0850215 0 0.08532 -0.1362 0 0.113389 -0.173564 0 0.141147 -0.209772 0 0.168512 -0.255824 0 0.195409 -0.288381 0 0.221772 -0.318978 0 0.24751 -0.356331 0 0.272568 -0.381483 0 0.296876 -0.410806 0 0.32035 -0.429385 0 0.342946 -0.444835 0 0.36459 -0.460273 0 0.385219 -0.467776 0 0.404793 -0.471629 0 0.423233 -0.470868 0 0.440505 -0.465729 0 0.456572 -0.456572 0 </DataArray> 
<DataArray type="Float32" Name="divergence" format="ascii" NumberOfComponents="1"> 
-9.54098e-18 -0.0468035 -0.0932641 -0.154147 -0.198617 -0.24173 -0.296596 -0.335409 -0.371908 -0.416508 -0.446572 -0.481676 -0.503964 -0.522548 -0.541212 -0.550382 -0.555226 -0.554694 -0.54888 -0.538299 0.0468035 -2.77556e-17 -0.0465637 -0.107745 -0.152558 -0.196118 -0.251738 -0.291233 -0.328514 -0.374308 -0.40538 -0.441973 -0.465484 -0.485379 -0.505924 -0.516602 -0.523031 -0.52473 -0.520672 -0.511915 0.0932641 0.0465637 -1.11022e-16 -0.061343 -0.1064 -0.150307 -0.206554 -0.246641 -0.284618 -0.331499 -0.363506 -0.401499 -0.426175 -0.447331 -0.469702 -0.481855 -0.489848 -0.493763 -0.491461 -0.484537 0.154147 0.107745 0.061343 0 -0.0452205 -0.0894343 -0.146311 -0.187039 -0.2258 -0.273952 -0.307077 -0.346784 -0.372909 -0.395652 -0.420352 -0.434407 -0.444431 -0.451251 -0.451272 -0.446787 0.198617 0.152558 0.1064 0.0452205 -4.44089e-16 -0.0443211 -0.101511 -0.142602 -0.181838 -0.230797 -0.264659 -0.305522 -0.332646 -0.356498 -0.382849 -0.398268 -0.409763 -0.418707 -0.420439 -0.417765 0.24173 0.196118 0.150307 0.0894343 0.0443211 8.88178e-16 -0.0573605 -0.0987103 -0.138318 -0.187952 -0.222456 -0.264356 -0.292394 -0.317277 -0.345182 -0.361902 -0.374812 -0.385815 -0.389221 -0.388327 0.296596 0.251738 0.206554 0.146311 0.101511 0.0573605 0 -0.0415251 -0.0814621 -0.131778 -0.16698 -0.21006 -0.239173 -0.265294 -0.295104 -0.313443 -0.328133 -0.341761 -0.347319 -0.348733 0.335409 0.291233 0.246641 0.187039 0.142602 0.0987103 0.0415251 1.77636e-15 -0.0400532 -0.0907096 -0.126308 -0.170112 -0.199913 -0.226851 -0.257949 -0.277403 -0.293338 -0.308824 -0.315923 -0.319004 0.371908 0.328514 0.284618 0.2258 0.181838 0.138318 0.0814621 0.0400532 0 -0.0508429 -0.0867251 -0.131104 -0.161487 -0.189136 -0.22139 -0.241866 -0.258956 -0.276191 -0.284756 -0.289436 0.416508 0.374308 0.331499 0.273952 0.230797 0.187952 0.131778 0.0907096 0.0508429 1.77636e-15 -0.0360751 -0.0809766 -0.111956 -0.140381 -0.173951 -0.195629 -0.214107 -0.23348 -0.243868 -0.250556 0.446572 0.40538 0.363506 0.307077 0.264659 0.222456 0.16698 0.126308 0.0867251 0.0360751 0 -0.0451021 -0.0763875 -0.105255 -0.139631 -0.162079 -0.181472 -0.20229 -0.213931 -0.222018 0.481676 0.441973 0.401499 0.346784 0.305522 0.264356 0.21006 0.170112 0.131104 0.0809766 0.0451021 -3.55271e-15 -0.0314935 -0.0607531 -0.0959464 -0.119233 -0.13966 -0.162169 -0.175313 -0.185104 0.503964 0.465484 0.426175 0.372909 0.332646 0.292394 0.239173 0.199913 0.161487 0.111956 0.0763875 0.0314935 0 -0.0293985 -0.065 -0.0887648 -0.109821 -0.133405 -0.147537 -0.158474 0.522548 0.485379 0.447331 0.395652 0.356498 0.317277 0.265294 0.226851 0.189136 0.140381 0.105255 0.0607531 0.0293985 3.55271e-15 -0.0358256 -0.0599317 -0.0814813 -0.105967 -0.120959 -0.132916 0.541212 0.505924 0.469702 0.420352 0.382849 0.345182 0.295104 0.257949 0.22139 0.173951 0.139631 0.0959464 0.065 0.0358256 3.55271e-15 -0.0243384 -0.0463256 -0.0717223 -0.0876486 -0.100758 0.550382 0.516602 0.481855 0.434407 0.398268 0.361902 0.313443 0.277403 0.241866 0.195629 0.162079 0.119233 0.0887648 0.0599317 0.0243384 0 -0.022142 -0.047993 -0.0644506 -0.0782577 0.555226 0.523031 0.489848 0.444431 0.409763 0.374812 0.328133 0.293338 0.258956 0.214107 0.181472 0.13966 0.109821 0.0814813 0.0463256 0.022142 0 -0.0260999 -0.0429363 -0.0572906 0.554694 0.52473 0.493763 0.451251 0.418707 0.385815 0.341761 0.308824 0.276191 0.23348 0.20229 0.162169 0.133405 0.105967 0.0717223 0.047993 0.0260999 0 -0.0170935 -0.0319315 0.54888 0.520672 0.491461 0.451272 0.420439 0.389221 0.347319 0.315923 0.284756 0.243868 0.213931 0.175313 0.147537 0.120959 0.0876486 0.0644506 0.0429363 0.0170935 3.55271e-15 -0.0150085 0.538299 0.511915 0.484537 0.446787 0.417765 0.388327 0.348733 0.319004 0.289436 0.250556 0.222018 0.185104 0.158474 0.132916 0.100758 0.0782577 0.0572906 0.0319315 0.0150085 0 </DataArray> 
</PointData> 
<Points> 
<DataArray type="Float32" NumberOfComponents="3"> 
0 0 0 0.0526316 0 0 0.105263 0 0 0.157895 0 0 0.210526 0 0 0.263158 0 0 0.315789 0 0 0.368421 0 0 0.421053 0 0 0.473684 0 0 0.526316 0 0 0.578947 0 0 0.631579 0 0 0.684211 0 0 0.736842 0 0 0.789474 0 0 0.842105 0 0 0.894737 0 0 0.947368 0 0 1 0 0 0 0.0526316 0 0.0526316 0.0526316 0 0.105263 0.0526316 0 0.157895 0.0526316 0 0.210526 0.0526316 0 0.263158 0.0526316 0 0.315789 0.0526316 0 0.368421 0.0526316 0 0.421053 0.0526316 0 0.473684 0.0526316 0 0.526316 0.0526316 0 0.578947 0.0526316 0 0.631579 0.0526316 0 0.684211 0.0526316 0 0.736842 0.0526316 0 0.789474 0.0526316 0 0.842105 0.0526316 0 0.894737 0.0526316 0 0.947368 0.0526316 0 1 0.0526316 0 0 0.105263 0 0.0526316 0.105263 0 0.105263 0.105263 0 0.157895 0.105263 0 0.210526 0.105263 0 0.263158 0.105263 0 0.315789 0.105263 0 0.368421 0.105263 0 0.421053 0.105263 0 0.473684 0.105263 0 0.526316 0.105263 0 0.578947 0.105263 0 0.631579 0.105263 0 0.684211 0.105263 0 0.736842 0.105263 0 0.789474 0.105263 0 0.842105 0.105263 0 0.894737 0.105263 0 0.947368 0.105263 0 1 0.105263 0 0 0.157895 0 0.0526316 0.157895 0 0.105263 0.157895 0 0.157895 0.157895 0 0.210526 0.157895 0 0.263158 0.157895 0 0.315789 0.157895 0 0.368421 0.157895 0 0.421053 0.157895 0 0.473684 0.157895 0 0.526316 0.157895 0 0.578947 0.157895 0 0.631579 0.157895 0 0.684211 0.157895 0 0.736842 0.157895 0 0.789474 0.157895 0 0.842105 0.157895 0 0.894737 0.157895 0 0.947368 0.157895 0 1 0.157895 0 0 0.210526 0 0.0526316 0.210526 0 0.105263 0.210526 0 0.157895 0.210526 0 0.210526 0.210526 0 0.263158 0.210526 0 0.315789 0.210526 0 0.368421 0.210526 0 0.421053 0.210526 0 0.473684 0.210526 0 0.526316 0.210526 0 0.578947 0.210526 0 0.631579 0.210526 0 0.684211 0.210526 0 0.736842 0.210526 0 0.789474 0.210526 0 0.842105 0.210526 0 0.894737 0.210526 0 0.947368 0.210526 0 1 0.210526 0 0 0.263158 0 0.0526316 0.263158 0 0.105263 0.263158 0 0.157895 0.263158 0 0.210526 0.263158 0 0.263158 0.263158 0 0.315789 0.263158 0 0.368421 0.263158 0 0.421053 0.263158 0 0.473684 0.263158 0 0.526316 0.263158 0 0.578947 0.263158 0 0.631579 0.263158 0 0.684211 0.263158 0 0.736842 0.263158 0 0.789474 0.263158 0 0.842105 0.263158 0 0.894737 0.263158 0 0.947368 0.263158 0 1 0.263158 0 0 0.315789 0 0.0526316 0.315789 0 0.105263 0.315789 0 0.157895 0.315789 0 0.210526 0.315789 0 0.263158 0.315789 0 0.315789 0.315789 0 0.368421 0.315789 0 0.421053 0.315789 0 0.473684 0.315789 0 0.526316 0.315789 0 0.578947 0.315789 0 0.631579 0.315789 0 0.684211 0.315789 0 0.736842 0.315789 0 0.789474 0.315789 0 0.842105 0.315789 0 0.894737 0.315789 0 0.947368 0.315789 0 1 0.315789 0 0 0.368421 0 0.0526316 0.368421 0 0.105263 0.368421 0 0.157895 0.368421 0 0.210526 0.368421 0 0.263158 0.368421 0 0.315789 0.368421 0 0.368421 0.368421 0 0.421053 0.368421 0 0.473684 0.368421 0 0.526316 0.368421 0 0.578947 0.368421 0 0.631579 0.368421 0 0.684211 0.368421 0 0.736842 0.368421 0 0.789474 0.368421 0 0.842105 0.368421 0 0.894737 0.368421 0 0.947368 0.368421 0 1 0.368421 0 0 0.421053 0 0.0526316 0.421053 0 0.105263 0.421053 0 0.157895 0.421053 0 0.210526 0.421053 0 0.263158 0.421053 0 0.315789 0.421053 0 0.368421 0.421053 0 0.421053 0.421053 0 0.473684 0.421053 0 0.526316 0.421053 0 0.578947 0.421053 0 0.631579 0.421053 0 0.684211 0.421053 0 0.736842 0.421053 0 0.789474 0.421053 0 0.842105 0.421053 0 0.894737 0.421053 0 0.947368 0.421053 0 1 0.421053 0 0 0.473684 0 0.0526316 0.473684 0 0.105263 0.473684 0 0.157895 0.473684 0 0.210526 0.473684 0 0.263158 0.473684 0 0.315789 0.473684 0 0.368421 0.473684 0 0.421053 0.473684 0 0.473684 0.473684 0 0.526316 0.473684 0 0.578947 0.473684 0 0.631579 0.473684 0 0.684211 0.473684 0 0.736842 0.473684 0 0.789474 0.473684 0 0.842105 0.473684 0 0.894737 0.473684 0 0.947368 0.473684 0 1 0.473684 0 0 0.526316 0 0.0526316 0.526316 0 0.105263 0.526316 0 0.157895 0.526316 0 0.210526 0.526316 0 0.263158 0.526316 0 0.315789 0.526316 0 0.368421 0.526316 0 0.421053 0.526316 0 0.473684 0.526316 0 0.526316 0.526316 0 0.578947 0.526316 0 0.631579 0.526316 0 0.684211 0.526316 0 0.736842 0.526316 0 0.789474 0.526316 0 0.842105 0.526316 0 0.894737 0.526316 0 0.947368 0.526316 0 1 0.526316 0 0 0.578947 0 0.0526316 0.578947 0 0.105263 0.578947 0 0.157895 0.578947 0 0.210526 0.578947 0 0.263158 0.578947 0 0.315789 0.578947 0 0.368421 0.578947 0 0.421053 0.578947 0 0.473684 0.578947 0 0.526316 0.578947 0 0.578947 0.578947 0 0.631579 0.578947 0 0.684211 0.578947 0 0.736842 0.578947 0 0.789474 0.578947 0 0.842105 0.578947 0 0.894737 0.578947 0 0.947368 0.578947 0 1 0.578947 0 0 0.631579 0 0.0526316 0.631579 0 0.105263 0.631579 0 0.157895 0.631579 0 0.210526 0.631579 0 0.263158 0.631579 0 0.315789 0.631579 0 0.368421 0.631579 0 0.421053 0.631579 0 0.473684 0.631579 0 0.526316 0.631579 0 0.578947 0.631579 0 0.631579 0.631579 0 0.684211 0.631579 0 0.736842 0.631579 0 0.789474 0.631579 0 0.842105 0.631579 0 0.894737 0.631579 0 0.947368 0.631579 0 1 0.631579 0 0 0.684211 0 0.0526316 0.684211 0 0.105263 0.684211 0 0.157895 0.684211 0 0.210526 0.684211 0 0.263158 0.684211 0 0.315789 0.684211 0 0.368421 0.684211 0 0.421053 0.684211 0 0.473684 0.684211 0 0.526316 0.684211 0 0.578947 0.684211 0 0.631579 0.684211 0 0.684211 0.684211 0 0.736842 0.684211 0 0.789474 0.684211 0 0.842105 0.684211 0 0.894737 0.684211 0 0.947368 0.684211 0 1 0.684211 0 0 0.736842 0 0.0526316 0.736842 0 0.105263 0.736842 0 0.157895 0.736842 0 0.210526 0.736842 0 0.263158 0.736842 0 0.315789 0.736842 0 0.368421 0.736842 0 0.421053 0.736842 0 0.473684 0.736842 0 0.526316 0.736842 0 0.578947 0.736842 0 0.631579 0.736842 0 0.684211 0.736842 0 0.736842 0.736842 0 0.789474 0.736842 0 0.842105 0.736842 0 0.894737 0.736842 0 0.947368 0.736842 0 1 0.736842 0 0 0.789474 0 0.0526316 0.789474 0 0.105263 0.789474 0 0.157895 0.789474 0 0.210526 0.789474 0 0.263158 0.789474 0 0.315789 0.789474 0 0.368421 0.789474 0 0.421053 0.789474 0 0.473684 0.789474 0 0.526316 0.789474 0 0.578947 0.789474 0 0.631579 0.789474 0 0.684211 0.789474 0 0.736842 0.789474 0 0.789474 0.789474 0 0.842105 0.789474 0 0.894737 0.789474 0 0.947368 0.789474 0 1 0.789474 0 0 0.842105 0 0.0526316 0.842105 0 0.105263 0.842105 0 0.157895 0.842105 0 0.210526 0.842105 0 0.263158 0.842105 0 0.315789 0.842105 0 0.368421 0.842105 0 0.421053 0.842105 0 0.473684 0.842105 0 0.526316 0.842105 0 0.578947 0.842105 0 0.631579 0.842105 0 0.684211 0.842105 0 0.736842 0.842105 0 0.789474 0.842105 0 0.842105 0.842105 0 0.894737 0.842105 0 0.947368 0.842105 0 1 0.842105 0 0 0.894737 0 0.0526316 0.894737 0 0.105263 0.894737 0 0.157895 0.894737 0 0.210526 0.894737 0 0.263158 0.894737 0 0.315789 0.894737 0 0.368421 0.894737 0 0.421053 0.894737 0 0.473684 0.894737 0 0.526316 0.894737 0 0.578947 0.894737 0 0.631579 0.894737 0 0.684211 0.894737 0 0.736842 0.894737 0 0.789474 0.894737 0 0.842105 0.894737 0 0.894737 0.894737 0 0.947368 0.894737 0 1 0.894737 0 0 0.947368 0 0.0526316 0.947368 0 0.105263 0.947368 0 0.157895 0.947368 0 0.210526 0.947368 0 0.263158 0.947368 0 0.315789 0.947368 0 0.368421 0.947368 0 0.421053 0.947368 0 0.473684 0.947368 0 0.526316 0.947368 0 0.578947 0.947368 0 0.631579 0.947368 0 0.684211 0.947368 0 0.736842 0.947368 0 0.789474 0.947368 0 0.842105 0.947368 0 0.894737 0.947368 0 0.947368 0.947368 0 1 0.947368 0 0 1 0 0.0526316 1 0 0.105263 1 0 0.157895 1 0 0.210526 1 0 0.263158 1 0 0.315789 1 0 0.368421 1 0 0.421053 1 0 0.473684 1 0 0.526316 1 0 0.578947 1 0 0.631579 1 0 0.684211 1 0 0.736842 1 0 0.789474 1 0 0.842105 1 0 0.894737 1 0 0.947368 1 0 1 1 0 
</DataArray>
</Points> 
</Piece> 
</StructuredGrid> 
</VTKFile> 
