<?xml version="1.0"?> 
<VTKFile type="StructuredGrid" version="0.1"> 
<StructuredGrid WholeExtent="0 19 0 19 0 0"> 
<Piece Extent="0 19 0 19 0 0"> 
<PointData>
<DataArray type="Float32" Name="press" format="ascii" NumberOfComponents="1"> 
-1.23993 -1.23146 -1.20655 -1.16507 -1.10678 -1.03207 -0.940626 -0.832534 -0.708023 -0.566629 -0.408738 -0.234351 -0.0430816 0.164606 0.388942 0.63 0.887466 1.1617 1.4524 1.74125 -1.23993 -1.22868 -1.20101 -1.15676 -1.0957 -1.01822 -0.924008 -0.813147 -0.685867 -0.541705 -0.381047 -0.203892 -0.00985703 0.200595 0.427693 0.671509 0.931723 1.20869 1.50209 1.81197 -1.23993 -1.22592 -1.19547 -1.14845 -1.08462 -1.00437 -0.907399 -0.793772 -0.663727 -0.516801 -0.35338 -0.173464 0.02333 0.236539 0.466392 0.712962 0.975935 1.25569 1.55201 1.86484 -1.23994 -1.22315 -1.18993 -1.14014 -1.07355 -0.990536 -0.890797 -0.77441 -0.641606 -0.491925 -0.325752 -0.143089 0.0564486 0.272397 0.504986 0.75429 1.02 1.3025 1.60159 1.91713 -1.23994 -1.22038 -1.1844 -1.13184 -1.06248 -0.976705 -0.874208 -0.755068 -0.619516 -0.467094 -0.298187 -0.112797 0.0894599 0.308119 0.54341 0.795408 1.06381 1.34899 1.65074 1.96892 -1.23995 -1.21762 -1.17886 -1.12354 -1.05142 -0.962883 -0.857636 -0.735753 -0.597468 -0.442322 -0.270703 -0.082613 0.12233 0.34366 0.581608 0.836247 1.10727 1.39506 1.69939 2.02011 -1.23995 -1.21485 -1.17333 -1.11524 -1.04036 -0.949074 -0.841085 -0.716473 -0.575472 -0.417626 -0.243324 -0.052569 0.155017 0.37897 0.619515 0.876727 1.15029 1.4406 1.74741 2.07057 -1.23995 -1.21208 -1.16779 -1.10694 -1.0293 -0.935278 -0.824561 -0.697236 -0.553541 -0.393022 -0.21607 -0.0226927 0.187487 0.414002 0.657075 0.916778 1.1928 1.48551 1.79468 2.12016 -1.23995 -1.20931 -1.16225 -1.09864 -1.01826 -0.9215 -0.808067 -0.678047 -0.531682 -0.368522 -0.188961 0.00699057 0.219706 0.448715 0.694237 0.956339 1.23471 1.52971 1.84111 2.16876 -1.23995 -1.20654 -1.15671 -1.09035 -1.00722 -0.907741 -0.791608 -0.658916 -0.509911 -0.344147 -0.162023 0.036447 0.25163 0.483053 0.730932 0.995327 1.27592 1.57308 1.88656 2.2162 -1.23995 -1.20376 -1.15118 -1.08206 -0.996198 -0.894004 -0.775189 -0.639849 -0.488235 -0.319909 -0.135272 0.0656541 0.283231 0.516981 0.767115 1.03369 1.31637 1.61554 1.93093 2.26239 -1.23994 -1.20099 -1.14564 -1.07377 -0.985184 -0.880292 -0.758813 -0.620852 -0.466665 -0.295821 -0.108729 0.0945852 0.314474 0.550456 0.802733 1.07135 1.35599 1.657 1.97413 2.3072 -1.23993 -1.19821 -1.14009 -1.06548 -0.974183 -0.866607 -0.742488 -0.601936 -0.445215 -0.271905 -0.0824199 0.123206 0.345315 0.583422 0.837718 1.10825 1.39467 1.69734 2.016 2.35047 -1.23992 -1.19542 -1.13455 -1.0572 -0.963194 -0.852952 -0.726215 -0.583104 -0.423892 -0.248169 -0.0563581 0.151499 0.375732 0.615851 0.872037 1.14432 1.43237 1.73651 2.05649 2.39211 -1.2399 -1.19263 -1.129 -1.04892 -0.95222 -0.839328 -0.71 -0.564366 -0.402709 -0.224632 -0.0305674 0.179433 0.405686 0.647694 0.905627 1.17951 1.46899 1.7744 2.09547 2.43201 -1.23988 -1.18983 -1.12344 -1.04064 -0.941261 -0.825742 -0.69385 -0.54573 -0.381677 -0.20131 -0.00506957 0.206979 0.435139 0.678905 0.938435 1.21374 1.50447 1.81093 2.13284 2.47002 -1.23984 -1.187 -1.11787 -1.03237 -0.930321 -0.812194 -0.677768 -0.527203 -0.360805 -0.178213 0.0201212 0.23412 0.46407 0.709458 0.970428 1.24698 1.53875 1.84603 2.16854 2.50609 -1.23976 -1.18412 -1.11228 -1.02409 -0.919406 -0.798694 -0.661764 -0.508794 -0.340108 -0.155362 0.0449779 0.260821 0.492434 0.739296 1.00154 1.27914 1.57174 1.87961 2.20245 2.54006 -1.23958 -1.1811 -1.10669 -1.01585 -0.908526 -0.785247 -0.645842 -0.490511 -0.319593 -0.132769 0.0694854 0.287061 0.520206 0.76839 1.03173 1.31018 1.6034 1.91161 2.23452 2.57177 -1.22112 -1.17815 -1.10119 -1.00766 -0.897695 -0.771861 -0.63001 -0.472362 -0.299273 -0.110447 0.0936258 0.312819 0.547359 0.796706 1.06096 1.34007 1.63366 1.94199 2.26483 2.60157 </DataArray> 
</PointData> 
<Points> 
<DataArray type="Float32" NumberOfComponents="3"> 
0 0 0 0.0526316 0 0 0.105263 0 0 0.157895 0 0 0.210526 0 0 0.263158 0 0 0.315789 0 0 0.368421 0 0 0.421053 0 0 0.473684 0 0 0.526316 0 0 0.578947 0 0 0.631579 0 0 0.684211 0 0 0.736842 0 0 0.789474 0 0 0.842105 0 0 0.894737 0 0 0.947368 0 0 1 0 0 0 0.0526316 0 0.0526316 0.0526316 0 0.105263 0.0526316 0 0.157895 0.0526316 0 0.210526 0.0526316 0 0.263158 0.0526316 0 0.315789 0.0526316 0 0.368421 0.0526316 0 0.421053 0.0526316 0 0.473684 0.0526316 0 0.526316 0.0526316 0 0.578947 0.0526316 0 0.631579 0.0526316 0 0.684211 0.0526316 0 0.736842 0.0526316 0 0.789474 0.0526316 0 0.842105 0.0526316 0 0.894737 0.0526316 0 0.947368 0.0526316 0 1 0.0526316 0 0 0.105263 0 0.0526316 0.105263 0 0.105263 0.105263 0 0.157895 0.105263 0 0.210526 0.105263 0 0.263158 0.105263 0 0.315789 0.105263 0 0.368421 0.105263 0 0.421053 0.105263 0 0.473684 0.105263 0 0.526316 0.105263 0 0.578947 0.105263 0 0.631579 0.105263 0 0.684211 0.105263 0 0.736842 0.105263 0 0.789474 0.105263 0 0.842105 0.105263 0 0.894737 0.105263 0 0.947368 0.105263 0 1 0.105263 0 0 0.157895 0 0.0526316 0.157895 0 0.105263 0.157895 0 0.157895 0.157895 0 0.210526 0.157895 0 0.263158 0.157895 0 0.315789 0.157895 0 0.368421 0.157895 0 0.421053 0.157895 0 0.473684 0.157895 0 0.526316 0.157895 0 0.578947 0.157895 0 0.631579 0.157895 0 0.684211 0.157895 0 0.736842 0.157895 0 0.789474 0.157895 0 0.842105 0.157895 0 0.894737 0.157895 0 0.947368 0.157895 0 1 0.157895 0 0 0.210526 0 0.0526316 0.210526 0 0.105263 0.210526 0 0.157895 0.210526 0 0.210526 0.210526 0 0.263158 0.210526 0 0.315789 0.210526 0 0.368421 0.210526 0 0.421053 0.210526 0 0.473684 0.210526 0 0.526316 0.210526 0 0.578947 0.210526 0 0.631579 0.210526 0 0.684211 0.210526 0 0.736842 0.210526 0 0.789474 0.210526 0 0.842105 0.210526 0 0.894737 0.210526 0 0.947368 0.210526 0 1 0.210526 0 0 0.263158 0 0.0526316 0.263158 0 0.105263 0.263158 0 0.157895 0.263158 0 0.210526 0.263158 0 0.263158 0.263158 0 0.315789 0.263158 0 0.368421 0.263158 0 0.421053 0.263158 0 0.473684 0.263158 0 0.526316 0.263158 0 0.578947 0.263158 0 0.631579 0.263158 0 0.684211 0.263158 0 0.736842 0.263158 0 0.789474 0.263158 0 0.842105 0.263158 0 0.894737 0.263158 0 0.947368 0.263158 0 1 0.263158 0 0 0.315789 0 0.0526316 0.315789 0 0.105263 0.315789 0 0.157895 0.315789 0 0.210526 0.315789 0 0.263158 0.315789 0 0.315789 0.315789 0 0.368421 0.315789 0 0.421053 0.315789 0 0.473684 0.315789 0 0.526316 0.315789 0 0.578947 0.315789 0 0.631579 0.315789 0 0.684211 0.315789 0 0.736842 0.315789 0 0.789474 0.315789 0 0.842105 0.315789 0 0.894737 0.315789 0 0.947368 0.315789 0 1 0.315789 0 0 0.368421 0 0.0526316 0.368421 0 0.105263 0.368421 0 0.157895 0.368421 0 0.210526 0.368421 0 0.263158 0.368421 0 0.315789 0.368421 0 0.368421 0.368421 0 0.421053 0.368421 0 0.473684 0.368421 0 0.526316 0.368421 0 0.578947 0.368421 0 0.631579 0.368421 0 0.684211 0.368421 0 0.736842 0.368421 0 0.789474 0.368421 0 0.842105 0.368421 0 0.894737 0.368421 0 0.947368 0.368421 0 1 0.368421 0 0 0.421053 0 0.0526316 0.421053 0 0.105263 0.421053 0 0.157895 0.421053 0 0.210526 0.421053 0 0.263158 0.421053 0 0.315789 0.421053 0 0.368421 0.421053 0 0.421053 0.421053 0 0.473684 0.421053 0 0.526316 0.421053 0 0.578947 0.421053 0 0.631579 0.421053 0 0.684211 0.421053 0 0.736842 0.421053 0 0.789474 0.421053 0 0.842105 0.421053 0 0.894737 0.421053 0 0.947368 0.421053 0 1 0.421053 0 0 0.473684 0 0.0526316 0.473684 0 0.105263 0.473684 0 0.157895 0.473684 0 0.210526 0.473684 0 0.263158 0.473684 0 0.315789 0.473684 0 0.368421 0.473684 0 0.421053 0.473684 0 0.473684 0.473684 0 0.526316 0.473684 0 0.578947 0.473684 0 0.631579 0.473684 0 0.684211 0.473684 0 0.736842 0.473684 0 0.789474 0.473684 0 0.842105 0.473684 0 0.894737 0.473684 0 0.947368 0.473684 0 1 0.473684 0 0 0.526316 0 0.0526316 0.526316 0 0.105263 0.526316 0 0.157895 0.526316 0 0.210526 0.526316 0 0.263158 0.526316 0 0.315789 0.526316 0 0.368421 0.526316 0 0.421053 0.526316 0 0.473684 0.526316 0 0.526316 0.526316 0 0.578947 0.526316 0 0.631579 0.526316 0 0.684211 0.526316 0 0.736842 0.526316 0 0.789474 0.526316 0 0.842105 0.526316 0 0.894737 0.526316 0 0.947368 0.526316 0 1 0.526316 0 0 0.578947 0 0.0526316 0.578947 0 0.105263 0.578947 0 0.157895 0.578947 0 0.210526 0.578947 0 0.263158 0.578947 0 0.315789 0.578947 0 0.368421 0.578947 0 0.421053 0.578947 0 0.473684 0.578947 0 0.526316 0.578947 0 0.578947 0.578947 0 0.631579 0.578947 0 0.684211 0.578947 0 0.736842 0.578947 0 0.789474 0.578947 0 0.842105 0.578947 0 0.894737 0.578947 0 0.947368 0.578947 0 1 0.578947 0 0 0.631579 0 0.0526316 0.631579 0 0.105263 0.631579 0 0.157895 0.631579 0 0.210526 0.631579 0 0.263158 0.631579 0 0.315789 0.631579 0 0.368421 0.631579 0 0.421053 0.631579 0 0.473684 0.631579 0 0.526316 0.631579 0 0.578947 0.631579 0 0.631579 0.631579 0 0.684211 0.631579 0 0.736842 0.631579 0 0.789474 0.631579 0 0.842105 0.631579 0 0.894737 0.631579 0 0.947368 0.631579 0 1 0.631579 0 0 0.684211 0 0.0526316 0.684211 0 0.105263 0.684211 0 0.157895 0.684211 0 0.210526 0.684211 0 0.263158 0.684211 0 0.315789 0.684211 0 0.368421 0.684211 0 0.421053 0.684211 0 0.473684 0.684211 0 0.526316 0.684211 0 0.578947 0.684211 0 0.631579 0.684211 0 0.684211 0.684211 0 0.736842 0.684211 0 0.789474 0.684211 0 0.842105 0.684211 0 0.894737 0.684211 0 0.947368 0.684211 0 1 0.684211 0 0 0.736842 0 0.0526316 0.736842 0 0.105263 0.736842 0 0.157895 0.736842 0 0.210526 0.736842 0 0.263158 0.736842 0 0.315789 0.736842 0 0.368421 0.736842 0 0.421053 0.736842 0 0.473684 0.736842 0 0.526316 0.736842 0 0.578947 0.736842 0 0.631579 0.736842 0 0.684211 0.736842 0 0.736842 0.736842 0 0.789474 0.736842 0 0.842105 0.736842 0 0.894737 0.736842 0 0.947368 0.736842 0 1 0.736842 0 0 0.789474 0 0.0526316 0.789474 0 0.105263 0.789474 0 0.157895 0.789474 0 0.210526 0.789474 0 0.263158 0.789474 0 0.315789 0.789474 0 0.368421 0.789474 0 0.421053 0.789474 0 0.473684 0.789474 0 0.526316 0.789474 0 0.578947 0.789474 0 0.631579 0.789474 0 0.684211 0.789474 0 0.736842 0.789474 0 0.789474 0.789474 0 0.842105 0.789474 0 0.894737 0.789474 0 0.947368 0.789474 0 1 0.789474 0 0 0.842105 0 0.0526316 0.842105 0 0.105263 0.842105 0 0.157895 0.842105 0 0.210526 0.842105 0 0.263158 0.842105 0 0.315789 0.842105 0 0.368421 0.842105 0 0.421053 0.842105 0 0.473684 0.842105 0 0.526316 0.842105 0 0.578947 0.842105 0 0.631579 0.842105 0 0.684211 0.842105 0 0.736842 0.842105 0 0.789474 0.842105 0 0.842105 0.842105 0 0.894737 0.842105 0 0.947368 0.842105 0 1 0.842105 0 0 0.894737 0 0.0526316 0.894737 0 0.105263 0.894737 0 0.157895 0.894737 0 0.210526 0.894737 0 0.263158 0.894737 0 0.315789 0.894737 0 0.368421 0.894737 0 0.421053 0.894737 0 0.473684 0.894737 0 0.526316 0.894737 0 0.578947 0.894737 0 0.631579 0.894737 0 0.684211 0.894737 0 0.736842 0.894737 0 0.789474 0.894737 0 0.842105 0.894737 0 0.894737 0.894737 0 0.947368 0.894737 0 1 0.894737 0 0 0.947368 0 0.0526316 0.947368 0 0.105263 0.947368 0 0.157895 0.947368 0 0.210526 0.947368 0 0.263158 0.947368 0 0.315789 0.947368 0 0.368421 0.947368 0 0.421053 0.947368 0 0.473684 0.947368 0 0.526316 0.947368 0 0.578947 0.947368 0 0.631579 0.947368 0 0.684211 0.947368 0 0.736842 0.947368 0 0.789474 0.947368 0 0.842105 0.947368 0 0.894737 0.947368 0 0.947368 0.947368 0 1 0.947368 0 0 1 0 0.0526316 1 0 0.105263 1 0 0.157895 1 0 0.210526 1 0 0.263158 1 0 0.315789 1 0 0.368421 1 0 0.421053 1 0 0.473684 1 0 0.526316 1 0 0.578947 1 0 0.631579 1 0 0.684211 1 0 0.736842 1 0 0.789474 1 0 0.842105 1 0 0.894737 1 0 0.947368 1 0 1 1 0 
</DataArray>
</Points> 
</Piece> 
</StructuredGrid> 
</VTKFile> 
