<?xml version="1.0"?> 
<VTKFile type="StructuredGrid" version="0.1"> 
<StructuredGrid WholeExtent="0 19 0 19 0 0"> 
<Piece Extent="0 19 0 19 0 0"> 
<PointData>
<DataArray type="Float32" Name="velocity" format="ascii" NumberOfComponents="3"> 
0 0 0 0.0526076 0 0 0.10507 0 0 0.157241 0 0 0.208976 0 0 0.260133 0 0 0.310569 0 0 0.360145 0 0 0.408724 0 0 0.456171 0 0 0.502354 0 0 0.547147 0 0 0.590424 0 0 0.632065 0 0 0.671957 0 0 0.709987 0 0 0.746051 0 0 0.780049 0 0 0.811887 0 0 0.841488 0 0 0 -0.0526076 0 0.052533 -0.052533 0 0.10492 -0.052315 0 0.157018 -0.0519524 0 0.20868 -0.0514444 0 0.259764 -0.0507956 0 0.310129 -0.0500052 0 0.359635 -0.049076 0 0.408146 -0.0480125 0 0.455526 -0.046814 0 0.501644 -0.0454868 0 0.546374 -0.0440345 0 0.58959 -0.0424584 0 0.631174 -0.0407661 0 0.671009 -0.0389608 0 0.708987 -0.0370469 0 0.745002 -0.035032 0 0.778955 -0.0329197 0 0.810752 -0.030718 0 0.840299 -0.0284241 0 0 -0.10507 0 0.052315 -0.10492 0 0.104485 -0.104485 0 0.156366 -0.103761 0 0.207814 -0.102746 0 0.258687 -0.101451 0 0.308843 -0.0998721 0 0.358144 -0.0980164 0 0.406453 -0.0958925 0 0.453637 -0.0934987 0 0.499564 -0.090848 0 0.544109 -0.0879475 0 0.587146 -0.0847997 0 0.628557 -0.08142 0 0.668229 -0.0778144 0 0.706049 -0.0739923 0 0.741915 -0.069968 0 0.775726 -0.0657483 0 0.807387 -0.0613459 0 0.836811 -0.0567693 0 0 -0.157241 0 0.0519524 -0.157018 0 0.103761 -0.156366 0 0.155283 -0.155283 0 0.206374 -0.153764 0 0.256894 -0.151825 0 0.306703 -0.149463 0 0.355663 -0.146686 0 0.403638 -0.143507 0 0.450495 -0.139925 0 0.496104 -0.135958 0 0.54034 -0.131617 0 0.583079 -0.126907 0 0.624204 -0.121849 0 0.6636 -0.116453 0 0.701159 -0.110733 0 0.736775 -0.10471 0 0.77035 -0.0983928 0 0.801791 -0.0918025 0 0.831011 -0.0849574 0 0 -0.208976 0 0.0514444 -0.20868 0 0.102746 -0.207814 0 0.153764 -0.206374 0 0.204356 -0.204356 0 0.254383 -0.201779 0 0.303705 -0.19864 0 0.352186 -0.194949 0 0.399692 -0.190725 0 0.446091 -0.185964 0 0.491254 -0.180692 0 0.535057 -0.174923 0 0.577379 -0.168662 0 0.618101 -0.16194 0 0.657112 -0.154769 0 0.694303 -0.147166 0 0.72957 -0.13916 0 0.762816 -0.130764 0 0.793949 -0.122005 0 0.822884 -0.11291 0 0 -0.260133 0 0.0507956 -0.259764 0 0.101451 -0.258687 0 0.151825 -0.256894 0 0.201779 -0.254383 0 0.251175 -0.251175 0 0.299875 -0.247267 0 0.347745 -0.242673 0 0.394652 -0.237414 0 0.440466 -0.231488 0 0.48506 -0.224925 0 0.52831 -0.217744 0 0.570098 -0.209951 0 0.610307 -0.201583 0 0.648825 -0.192655 0 0.685546 -0.183191 0 0.720368 -0.173225 0 0.753195 -0.162773 0 0.783936 -0.15187 0 0.812505 -0.14055 0 0 -0.310569 0 0.0500052 -0.310129 0 0.0998721 -0.308843 0 0.149463 -0.306703 0 0.19864 -0.303705 0 0.247267 -0.299875 0 0.295209 -0.295209 0 0.342334 -0.289724 0 0.388511 -0.283446 0 0.433612 -0.276371 0 0.477512 -0.268536 0 0.52009 -0.259962 0 0.561227 -0.250657 0 0.60081 -0.240667 0 0.638729 -0.230008 0 0.674878 -0.218708 0 0.709158 -0.206809 0 0.741474 -0.194331 0 0.771736 -0.181314 0 0.799862 -0.167801 0 0 -0.360145 0 0.049076 -0.359635 0 0.0980164 -0.358144 0 0.146686 -0.355663 0 0.194949 -0.352186 0 0.242673 -0.347745 0 0.289724 -0.342334 0 0.335974 -0.335974 0 0.381293 -0.328693 0 0.425555 -0.320488 0 0.46864 -0.311403 0 0.510426 -0.30146 0 0.550799 -0.29067 0 0.589646 -0.279084 0 0.62686 -0.266724 0 0.662338 -0.25362 0 0.695981 -0.239821 0 0.727696 -0.22535 0 0.757396 -0.210256 0 0.784998 -0.194587 0 0 -0.408724 0 0.0480125 -0.408146 0 0.0958925 -0.406453 0 0.143507 -0.403638 0 0.190725 -0.399692 0 0.237414 -0.394652 0 0.283446 -0.388511 0 0.328693 -0.381293 0 0.37303 -0.37303 0 0.416334 -0.363718 0 0.458485 -0.353407 0 0.499365 -0.342123 0 0.538863 -0.329877 0 0.576868 -0.316729 0 0.613276 -0.302701 0 0.647984 -0.287829 0 0.680898 -0.272169 0 0.711926 -0.255746 0 0.740983 -0.238617 0 0.767987 -0.220835 0 0 -0.456171 0 0.046814 -0.455526 0 0.0934987 -0.453637 0 0.139925 -0.450495 0 0.185964 -0.446091 0 0.231488 -0.440466 0 0.276371 -0.433612 0 0.320488 -0.425555 0 0.363718 -0.416334 0 0.405941 -0.405941 0 0.447039 -0.394432 0 0.4869 -0.381839 0 0.525411 -0.368171 0 0.562467 -0.353496 0 0.597966 -0.337839 0 0.631808 -0.321241 0 0.6639 -0.303763 0 0.694154 -0.285434 0 0.722485 -0.266316 0 0.748815 -0.24647 0 0 -0.502354 0 0.0454868 -0.501644 0 0.090848 -0.499564 0 0.135958 -0.496104 0 0.180692 -0.491254 0 0.224925 -0.48506 0 0.268536 -0.477512 0 0.311403 -0.46864 0 0.353407 -0.458485 0 0.394432 -0.447039 0 0.434365 -0.434365 0 0.473095 -0.420497 0 0.510515 -0.405445 0 0.54652 -0.389284 0 0.581012 -0.372042 0 0.613895 -0.353763 0 0.645077 -0.334516 0 0.674473 -0.314331 0 0.702001 -0.293278 0 0.727585 -0.271423 0 0 -0.547147 0 0.0440345 -0.546374 0 0.0879475 -0.544109 0 0.131617 -0.54034 0 0.174923 -0.535057 0 0.217744 -0.52831 0 0.259962 -0.52009 0 0.30146 -0.510426 0 0.342123 -0.499365 0 0.381839 -0.4869 0 0.420497 -0.473095 0 0.45799 -0.45799 0 0.494215 -0.441596 0 0.52907 -0.423994 0 0.562461 -0.405215 0 0.594294 -0.385306 0 0.624481 -0.364342 0 0.652938 -0.342358 0 0.679587 -0.319428 0 0.704354 -0.295625 0 0 -0.590424 0 0.0424584 -0.58959 0 0.0847997 -0.587146 0 0.126907 -0.583079 0 0.168662 -0.577379 0 0.209951 -0.570098 0 0.250657 -0.561227 0 0.29067 -0.550799 0 0.329877 -0.538863 0 0.368171 -0.525411 0 0.405445 -0.510515 0 0.441596 -0.494215 0 0.476524 -0.476524 0 0.510132 -0.457529 0 0.542328 -0.437265 0 0.573021 -0.415781 0 0.602127 -0.393159 0 0.629566 -0.369436 0 0.655261 -0.344693 0 0.679142 -0.319007 0 0 -0.632065 0 0.0407661 -0.631174 0 0.08142 -0.628557 0 0.121849 -0.624204 0 0.16194 -0.618101 0 0.201583 -0.610307 0 0.240667 -0.60081 0 0.279084 -0.589646 0 0.316729 -0.576868 0 0.353496 -0.562467 0 0.389284 -0.54652 0 0.423994 -0.52907 0 0.457529 -0.510132 0 0.489798 -0.489798 0 0.52071 -0.468104 0 0.55018 -0.445105 0 0.578126 -0.420888 0 0.604472 -0.395492 0 0.629143 -0.369003 0 0.652071 -0.341506 0 0 -0.671957 0 0.0389608 -0.671009 0 0.0778144 -0.668229 0 0.116453 -0.6636 0 0.154769 -0.657112 0 0.192655 -0.648825 0 0.230008 -0.638729 0 0.266724 -0.62686 0 0.302701 -0.613276 0 0.337839 -0.597966 0 0.372042 -0.581012 0 0.405215 -0.562461 0 0.437265 -0.542328 0 0.468104 -0.52071 0 0.497647 -0.497647 0 0.525812 -0.473197 0 0.552521 -0.447451 0 0.577699 -0.420452 0 0.601278 -0.392292 0 0.623191 -0.36306 0 0 -0.709987 0 0.0370469 -0.708987 0 0.0739923 -0.706049 0 0.110733 -0.701159 0 0.147166 -0.694303 0 0.183191 -0.685546 0 0.218708 -0.674878 0 0.25362 -0.662338 0 0.287829 -0.647984 0 0.321241 -0.631808 0 0.353763 -0.613895 0 0.385306 -0.594294 0 0.415781 -0.573021 0 0.445105 -0.55018 0 0.473197 -0.525812 0 0.499978 -0.499978 0 0.525375 -0.472776 0 0.549317 -0.444249 0 0.571737 -0.414494 0 0.592574 -0.383608 0 0 -0.746051 0 0.035032 -0.745002 0 0.069968 -0.741915 0 0.10471 -0.736775 0 0.13916 -0.72957 0 0.173225 -0.720368 0 0.206809 -0.709158 0 0.239821 -0.695981 0 0.272169 -0.680898 0 0.303763 -0.6639 0 0.334516 -0.645077 0 0.364342 -0.624481 0 0.393159 -0.602127 0 0.420888 -0.578126 0 0.447451 -0.552521 0 0.472776 -0.525375 0 0.496791 -0.496791 0 0.519431 -0.466815 0 0.540632 -0.435549 0 0.560335 -0.403093 0 0 -0.780049 0 0.0329197 -0.778955 0 0.0657483 -0.775726 0 0.0983928 -0.77035 0 0.130764 -0.762816 0 0.162773 -0.753195 0 0.194331 -0.741474 0 0.22535 -0.727696 0 0.255746 -0.711926 0 0.285434 -0.694154 0 0.314331 -0.674473 0 0.342358 -0.652938 0 0.369436 -0.629566 0 0.395492 -0.604472 0 0.420452 -0.577699 0 0.444249 -0.549317 0 0.466815 -0.519431 0 0.488089 -0.488089 0 0.508012 -0.455398 0 0.526527 -0.421463 0 0 -0.811887 0 0.030718 -0.810752 0 0.0613459 -0.807387 0 0.0918025 -0.801791 0 0.122005 -0.793949 0 0.15187 -0.783936 0 0.181314 -0.771736 0 0.210256 -0.757396 0 0.238617 -0.740983 0 0.266316 -0.722485 0 0.293278 -0.702001 0 0.319428 -0.679587 0 0.344693 -0.655261 0 0.369003 -0.629143 0 0.392292 -0.601278 0 0.414494 -0.571737 0 0.435549 -0.540632 0 0.455398 -0.508012 0 0.473988 -0.473988 0 0.491265 -0.438665 0 0 -0.841488 0 0.0284241 -0.840299 0 0.0567693 -0.836811 0 0.0849574 -0.831011 0 0.11291 -0.822884 0 0.14055 -0.812505 0 0.167801 -0.799862 0 0.194587 -0.784998 0 0.220835 -0.767987 0 0.24647 -0.748815 0 0.271423 -0.727585 0 0.295625 -0.704354 0 0.319007 -0.679142 0 0.341506 -0.652071 0 0.36306 -0.623191 0 0.383608 -0.592574 0 0.403093 -0.560335 0 0.421463 -0.526527 0 0.438665 -0.491265 0 0.454658 -0.454658 0 </DataArray> 
<DataArray type="Float32" Name="divergence" format="ascii" NumberOfComponents="1"> 
-1.11022e-15 -5.55112e-16 -1.88738e-15 -2.98372e-15 -2.16493e-15 -2.44249e-15 -3.85803e-15 -1.11022e-15 2.44249e-15 -1.66533e-15 -1.44329e-15 7.78544e-15 -4.71845e-15 1.9984e-15 -4.73233e-15 1.88738e-15 3.33067e-16 -3.19189e-15 7.66054e-15 -3.51941e-14 -2.22045e-15 -2.22045e-16 -6.66134e-16 -6.10623e-16 0 -1.55431e-15 4.996e-16 5.55112e-16 2.22045e-16 5.55112e-17 -2.22045e-15 6.32827e-15 2.10942e-15 1.55431e-15 -2.498e-16 -4.55191e-15 2.55351e-15 6.27276e-15 -2.88658e-15 -1.0103e-14 -1.77636e-15 -4.44089e-16 0 3.55271e-15 -1.33227e-15 -1.77636e-15 -4.88498e-15 4.44089e-16 -5.32907e-15 2.22045e-16 2.66454e-15 2.22045e-15 2.88658e-15 3.55271e-15 1.11022e-16 2.66454e-15 3.55271e-15 -3.10862e-15 2.66454e-15 -3.10862e-15 8.88178e-16 -1.60982e-15 -4.77396e-15 -7.34135e-15 -5.55112e-16 -2.22045e-16 -1.11022e-16 -7.77156e-16 8.21565e-15 -3.55271e-15 2.88658e-15 -2.76168e-15 4.82947e-15 -9.4369e-15 -1.11022e-14 -6.38378e-15 -1.32117e-14 6.99441e-15 8.04912e-15 -9.32587e-14 -1.77636e-15 -4.44089e-16 0 -4.88498e-15 4.44089e-16 -3.55271e-15 -3.10862e-15 1.77636e-15 -2.66454e-15 2.22045e-16 -2.66454e-15 1.44329e-15 1.33227e-15 -3.55271e-15 -1.11022e-16 -2.66454e-15 -3.55271e-15 -4.44089e-16 4.44089e-16 1.55431e-14 -3.55271e-15 -8.88178e-16 0 -7.54952e-15 -8.88178e-16 -3.55271e-15 -3.10862e-15 4.44089e-15 -3.55271e-15 4.44089e-15 7.10543e-15 7.88258e-15 5.32907e-15 7.10543e-15 6.43929e-15 7.10543e-15 1.06581e-14 7.10543e-15 4.44089e-15 5.77316e-14 3.55271e-15 4.44089e-16 -8.88178e-16 -4.4964e-15 -1.33227e-15 -1.33227e-15 5.77316e-15 2.22045e-15 -1.15463e-14 1.11022e-15 1.77636e-15 1.7486e-15 5.10703e-15 7.10543e-15 6.43929e-15 -1.33227e-15 7.54952e-15 0 9.10383e-15 2.39808e-14 -8.88178e-15 0 -3.55271e-15 -3.9968e-15 -8.88178e-16 -1.77636e-15 1.33227e-15 -3.55271e-15 -1.77636e-15 -2.22045e-15 0 0 3.55271e-15 1.77636e-15 -2.88658e-15 -5.32907e-15 -5.32907e-15 -4.88498e-15 -3.55271e-15 2.93099e-14 3.55271e-15 1.77636e-15 0 -1.02141e-14 1.77636e-15 3.55271e-15 2.66454e-15 3.55271e-15 0 5.32907e-15 0 1.02141e-14 -1.77636e-15 -1.77636e-15 -5.77316e-15 3.55271e-15 -1.77636e-15 6.21725e-15 0 4.79616e-14 -5.32907e-15 1.77636e-15 -5.32907e-15 2.77556e-15 -3.55271e-15 -8.88178e-16 -2.88658e-15 0 0 3.55271e-15 4.44089e-15 -8.88178e-16 7.54952e-15 4.44089e-15 5.77316e-15 2.66454e-15 0 -4.21885e-15 1.77636e-15 2.66454e-14 -3.55271e-15 0 -7.10543e-15 1.77636e-15 -3.55271e-15 -3.55271e-15 -2.66454e-15 -3.55271e-15 -3.55271e-15 -8.88178e-16 1.77636e-15 -1.9984e-15 -1.77636e-15 1.77636e-15 -7.99361e-15 -1.77636e-15 1.77636e-15 4.44089e-15 0 2.84217e-14 -1.11022e-15 7.77156e-15 2.22045e-16 1.34892e-14 -4.44089e-16 -5.55112e-15 5.77316e-15 3.33067e-15 8.21565e-15 -4.44089e-16 6.21725e-15 -3.63598e-15 2.22045e-15 -1.77636e-15 -1.77636e-15 -6.55032e-15 4.44089e-15 0 -3.66374e-15 5.79536e-14 -3.55271e-15 -2.66454e-15 0 -5.77316e-15 -1.77636e-15 -5.32907e-15 -4.44089e-15 -1.77636e-15 -3.55271e-15 4.44089e-15 -1.77636e-15 1.77636e-15 4.44089e-15 1.77636e-15 1.11022e-15 4.44089e-15 -3.55271e-15 -3.10862e-15 1.77636e-15 3.19744e-14 0 -3.55271e-15 -1.42109e-14 4.44089e-15 0 -1.06581e-14 -7.10543e-15 0 0 3.55271e-15 -7.10543e-15 1.35447e-14 1.77636e-15 1.06581e-14 6.66134e-15 3.55271e-15 1.42109e-14 -6.21725e-15 0 3.55271e-15 -1.68754e-14 5.32907e-15 3.55271e-15 1.13243e-14 -1.33227e-15 -1.77636e-15 1.77636e-15 -7.54952e-15 0 -8.88178e-16 1.15463e-14 1.12688e-14 3.9968e-15 -8.88178e-15 4.10783e-15 -1.33227e-15 7.99361e-15 3.9968e-15 -3.9968e-15 3.55271e-14 -7.10543e-15 1.77636e-15 -3.55271e-15 -3.55271e-15 -3.55271e-15 -1.42109e-14 -2.66454e-15 -1.77636e-15 -3.55271e-15 6.21725e-15 5.32907e-15 4.44089e-15 -1.77636e-15 5.32907e-15 7.99361e-15 -1.77636e-15 -1.77636e-15 -5.32907e-15 -1.77636e-15 2.4869e-14 -7.10543e-15 0 3.55271e-15 6.21725e-15 -7.10543e-15 -1.42109e-14 -5.32907e-15 -3.55271e-15 0 8.88178e-15 -3.55271e-15 1.02141e-14 1.77636e-15 3.55271e-15 5.32907e-15 5.32907e-15 -7.10543e-15 5.32907e-15 0 4.61853e-14 -5.32907e-15 -5.32907e-15 -3.55271e-15 -1.37668e-14 8.88178e-16 7.10543e-15 1.33227e-15 1.77636e-15 -3.55271e-15 4.44089e-15 6.21725e-15 -2.66454e-15 -8.88178e-16 7.10543e-15 1.77636e-15 2.66454e-15 6.21725e-15 -1.77636e-15 -5.32907e-15 5.06262e-14 0 -3.55271e-15 -1.06581e-14 7.99361e-15 7.10543e-15 0 0 3.55271e-15 7.10543e-15 1.77636e-15 -1.06581e-14 7.32747e-15 0 -3.55271e-15 -2.66454e-15 3.55271e-15 -3.55271e-15 -2.66454e-15 3.55271e-15 7.10543e-15 -7.10543e-14 -4.9738e-14 -1.42109e-14 7.99361e-14 0 0 2.4869e-14 3.55271e-14 2.84217e-14 0 -2.84217e-14 -6.83897e-14 -1.42109e-14 1.42109e-14 -1.42109e-14 -7.10543e-15 -5.68434e-14 -1.06581e-14 7.10543e-15 1.42109e-14 </DataArray> 
</PointData> 
<Points> 
<DataArray type="Float32" NumberOfComponents="3"> 
0 0 0 0.0526316 0 0 0.105263 0 0 0.157895 0 0 0.210526 0 0 0.263158 0 0 0.315789 0 0 0.368421 0 0 0.421053 0 0 0.473684 0 0 0.526316 0 0 0.578947 0 0 0.631579 0 0 0.684211 0 0 0.736842 0 0 0.789474 0 0 0.842105 0 0 0.894737 0 0 0.947368 0 0 1 0 0 0 0.0526316 0 0.0526316 0.0526316 0 0.105263 0.0526316 0 0.157895 0.0526316 0 0.210526 0.0526316 0 0.263158 0.0526316 0 0.315789 0.0526316 0 0.368421 0.0526316 0 0.421053 0.0526316 0 0.473684 0.0526316 0 0.526316 0.0526316 0 0.578947 0.0526316 0 0.631579 0.0526316 0 0.684211 0.0526316 0 0.736842 0.0526316 0 0.789474 0.0526316 0 0.842105 0.0526316 0 0.894737 0.0526316 0 0.947368 0.0526316 0 1 0.0526316 0 0 0.105263 0 0.0526316 0.105263 0 0.105263 0.105263 0 0.157895 0.105263 0 0.210526 0.105263 0 0.263158 0.105263 0 0.315789 0.105263 0 0.368421 0.105263 0 0.421053 0.105263 0 0.473684 0.105263 0 0.526316 0.105263 0 0.578947 0.105263 0 0.631579 0.105263 0 0.684211 0.105263 0 0.736842 0.105263 0 0.789474 0.105263 0 0.842105 0.105263 0 0.894737 0.105263 0 0.947368 0.105263 0 1 0.105263 0 0 0.157895 0 0.0526316 0.157895 0 0.105263 0.157895 0 0.157895 0.157895 0 0.210526 0.157895 0 0.263158 0.157895 0 0.315789 0.157895 0 0.368421 0.157895 0 0.421053 0.157895 0 0.473684 0.157895 0 0.526316 0.157895 0 0.578947 0.157895 0 0.631579 0.157895 0 0.684211 0.157895 0 0.736842 0.157895 0 0.789474 0.157895 0 0.842105 0.157895 0 0.894737 0.157895 0 0.947368 0.157895 0 1 0.157895 0 0 0.210526 0 0.0526316 0.210526 0 0.105263 0.210526 0 0.157895 0.210526 0 0.210526 0.210526 0 0.263158 0.210526 0 0.315789 0.210526 0 0.368421 0.210526 0 0.421053 0.210526 0 0.473684 0.210526 0 0.526316 0.210526 0 0.578947 0.210526 0 0.631579 0.210526 0 0.684211 0.210526 0 0.736842 0.210526 0 0.789474 0.210526 0 0.842105 0.210526 0 0.894737 0.210526 0 0.947368 0.210526 0 1 0.210526 0 0 0.263158 0 0.0526316 0.263158 0 0.105263 0.263158 0 0.157895 0.263158 0 0.210526 0.263158 0 0.263158 0.263158 0 0.315789 0.263158 0 0.368421 0.263158 0 0.421053 0.263158 0 0.473684 0.263158 0 0.526316 0.263158 0 0.578947 0.263158 0 0.631579 0.263158 0 0.684211 0.263158 0 0.736842 0.263158 0 0.789474 0.263158 0 0.842105 0.263158 0 0.894737 0.263158 0 0.947368 0.263158 0 1 0.263158 0 0 0.315789 0 0.0526316 0.315789 0 0.105263 0.315789 0 0.157895 0.315789 0 0.210526 0.315789 0 0.263158 0.315789 0 0.315789 0.315789 0 0.368421 0.315789 0 0.421053 0.315789 0 0.473684 0.315789 0 0.526316 0.315789 0 0.578947 0.315789 0 0.631579 0.315789 0 0.684211 0.315789 0 0.736842 0.315789 0 0.789474 0.315789 0 0.842105 0.315789 0 0.894737 0.315789 0 0.947368 0.315789 0 1 0.315789 0 0 0.368421 0 0.0526316 0.368421 0 0.105263 0.368421 0 0.157895 0.368421 0 0.210526 0.368421 0 0.263158 0.368421 0 0.315789 0.368421 0 0.368421 0.368421 0 0.421053 0.368421 0 0.473684 0.368421 0 0.526316 0.368421 0 0.578947 0.368421 0 0.631579 0.368421 0 0.684211 0.368421 0 0.736842 0.368421 0 0.789474 0.368421 0 0.842105 0.368421 0 0.894737 0.368421 0 0.947368 0.368421 0 1 0.368421 0 0 0.421053 0 0.0526316 0.421053 0 0.105263 0.421053 0 0.157895 0.421053 0 0.210526 0.421053 0 0.263158 0.421053 0 0.315789 0.421053 0 0.368421 0.421053 0 0.421053 0.421053 0 0.473684 0.421053 0 0.526316 0.421053 0 0.578947 0.421053 0 0.631579 0.421053 0 0.684211 0.421053 0 0.736842 0.421053 0 0.789474 0.421053 0 0.842105 0.421053 0 0.894737 0.421053 0 0.947368 0.421053 0 1 0.421053 0 0 0.473684 0 0.0526316 0.473684 0 0.105263 0.473684 0 0.157895 0.473684 0 0.210526 0.473684 0 0.263158 0.473684 0 0.315789 0.473684 0 0.368421 0.473684 0 0.421053 0.473684 0 0.473684 0.473684 0 0.526316 0.473684 0 0.578947 0.473684 0 0.631579 0.473684 0 0.684211 0.473684 0 0.736842 0.473684 0 0.789474 0.473684 0 0.842105 0.473684 0 0.894737 0.473684 0 0.947368 0.473684 0 1 0.473684 0 0 0.526316 0 0.0526316 0.526316 0 0.105263 0.526316 0 0.157895 0.526316 0 0.210526 0.526316 0 0.263158 0.526316 0 0.315789 0.526316 0 0.368421 0.526316 0 0.421053 0.526316 0 0.473684 0.526316 0 0.526316 0.526316 0 0.578947 0.526316 0 0.631579 0.526316 0 0.684211 0.526316 0 0.736842 0.526316 0 0.789474 0.526316 0 0.842105 0.526316 0 0.894737 0.526316 0 0.947368 0.526316 0 1 0.526316 0 0 0.578947 0 0.0526316 0.578947 0 0.105263 0.578947 0 0.157895 0.578947 0 0.210526 0.578947 0 0.263158 0.578947 0 0.315789 0.578947 0 0.368421 0.578947 0 0.421053 0.578947 0 0.473684 0.578947 0 0.526316 0.578947 0 0.578947 0.578947 0 0.631579 0.578947 0 0.684211 0.578947 0 0.736842 0.578947 0 0.789474 0.578947 0 0.842105 0.578947 0 0.894737 0.578947 0 0.947368 0.578947 0 1 0.578947 0 0 0.631579 0 0.0526316 0.631579 0 0.105263 0.631579 0 0.157895 0.631579 0 0.210526 0.631579 0 0.263158 0.631579 0 0.315789 0.631579 0 0.368421 0.631579 0 0.421053 0.631579 0 0.473684 0.631579 0 0.526316 0.631579 0 0.578947 0.631579 0 0.631579 0.631579 0 0.684211 0.631579 0 0.736842 0.631579 0 0.789474 0.631579 0 0.842105 0.631579 0 0.894737 0.631579 0 0.947368 0.631579 0 1 0.631579 0 0 0.684211 0 0.0526316 0.684211 0 0.105263 0.684211 0 0.157895 0.684211 0 0.210526 0.684211 0 0.263158 0.684211 0 0.315789 0.684211 0 0.368421 0.684211 0 0.421053 0.684211 0 0.473684 0.684211 0 0.526316 0.684211 0 0.578947 0.684211 0 0.631579 0.684211 0 0.684211 0.684211 0 0.736842 0.684211 0 0.789474 0.684211 0 0.842105 0.684211 0 0.894737 0.684211 0 0.947368 0.684211 0 1 0.684211 0 0 0.736842 0 0.0526316 0.736842 0 0.105263 0.736842 0 0.157895 0.736842 0 0.210526 0.736842 0 0.263158 0.736842 0 0.315789 0.736842 0 0.368421 0.736842 0 0.421053 0.736842 0 0.473684 0.736842 0 0.526316 0.736842 0 0.578947 0.736842 0 0.631579 0.736842 0 0.684211 0.736842 0 0.736842 0.736842 0 0.789474 0.736842 0 0.842105 0.736842 0 0.894737 0.736842 0 0.947368 0.736842 0 1 0.736842 0 0 0.789474 0 0.0526316 0.789474 0 0.105263 0.789474 0 0.157895 0.789474 0 0.210526 0.789474 0 0.263158 0.789474 0 0.315789 0.789474 0 0.368421 0.789474 0 0.421053 0.789474 0 0.473684 0.789474 0 0.526316 0.789474 0 0.578947 0.789474 0 0.631579 0.789474 0 0.684211 0.789474 0 0.736842 0.789474 0 0.789474 0.789474 0 0.842105 0.789474 0 0.894737 0.789474 0 0.947368 0.789474 0 1 0.789474 0 0 0.842105 0 0.0526316 0.842105 0 0.105263 0.842105 0 0.157895 0.842105 0 0.210526 0.842105 0 0.263158 0.842105 0 0.315789 0.842105 0 0.368421 0.842105 0 0.421053 0.842105 0 0.473684 0.842105 0 0.526316 0.842105 0 0.578947 0.842105 0 0.631579 0.842105 0 0.684211 0.842105 0 0.736842 0.842105 0 0.789474 0.842105 0 0.842105 0.842105 0 0.894737 0.842105 0 0.947368 0.842105 0 1 0.842105 0 0 0.894737 0 0.0526316 0.894737 0 0.105263 0.894737 0 0.157895 0.894737 0 0.210526 0.894737 0 0.263158 0.894737 0 0.315789 0.894737 0 0.368421 0.894737 0 0.421053 0.894737 0 0.473684 0.894737 0 0.526316 0.894737 0 0.578947 0.894737 0 0.631579 0.894737 0 0.684211 0.894737 0 0.736842 0.894737 0 0.789474 0.894737 0 0.842105 0.894737 0 0.894737 0.894737 0 0.947368 0.894737 0 1 0.894737 0 0 0.947368 0 0.0526316 0.947368 0 0.105263 0.947368 0 0.157895 0.947368 0 0.210526 0.947368 0 0.263158 0.947368 0 0.315789 0.947368 0 0.368421 0.947368 0 0.421053 0.947368 0 0.473684 0.947368 0 0.526316 0.947368 0 0.578947 0.947368 0 0.631579 0.947368 0 0.684211 0.947368 0 0.736842 0.947368 0 0.789474 0.947368 0 0.842105 0.947368 0 0.894737 0.947368 0 0.947368 0.947368 0 1 0.947368 0 0 1 0 0.0526316 1 0 0.105263 1 0 0.157895 1 0 0.210526 1 0 0.263158 1 0 0.315789 1 0 0.368421 1 0 0.421053 1 0 0.473684 1 0 0.526316 1 0 0.578947 1 0 0.631579 1 0 0.684211 1 0 0.736842 1 0 0.789474 1 0 0.842105 1 0 0.894737 1 0 0.947368 1 0 1 1 0 
</DataArray>
</Points> 
</Piece> 
</StructuredGrid> 
</VTKFile> 
